
 Working directory              : /tmp/lme/molpro.Y9lJA4WDg3/
 Global scratch directory       : /tmp/lme/molpro.Y9lJA4WDg3/
 Wavefunction directory         : /home/lme/wfu/
 Main file repository           : /tmp/lme/molpro.Y9lJA4WDg3/

 id        : liedlgroup

 Nodes     nprocs
 sv1-c724     1
 GA implementation: MPI file
 GA implementation (serial work in mppx): MPI file

 Using customized tuning parameters: mindgm=1; mindgv=20; mindgc=4; mindgr=1; noblas=0; minvec=7
 default implementation of scratch files=df  


 Variables initialized (1048), CPU time= 0.01 sec
 ***,Ethanol_Water
 memory, 200, m                                                                  ! Memory Requirements
 orient,mass
 geometry = {
 H,      1.8853,     -0.0401,      1.0854
 C,      1.2699,     -0.0477,      0.1772
 H,      1.5840,      0.8007,     -0.4449
 H,      1.5089,     -0.9636,     -0.3791
 C,     -0.2033,      0.0282,      0.5345
 H,     -0.4993,     -0.8287,      1.1714
 H,     -0.4235,      0.9513,      1.1064
 O,     -0.9394,      0.0157,     -0.6674
 H,     -1.8540,      0.0626,     -0.4252
 }
 
 mass, iso
 basis=6-311g(d,p)
 
 {hf
 start,atden}
 
 optg
 {frequencies, symm=auto, print=0,analytical}
 put,molden,methanol.molden
 
 
 Commands initialized (836), CPU time= 0.00 sec, 720 directives.
 Default parameters read. Elapsed time= 0.06 sec

 Checking input...
 Passed
1


                                         ***  PROGRAM SYSTEM MOLPRO  ***
                                       Copyright, TTI GmbH Stuttgart, 2015
                                  Version 2024.3 linked Mon Nov 11 20:19:41 2024


 **********************************************************************************************************************************
 LABEL *   Ethanol_Water                                                                                                                                                 
  (6 PROC) 64 bit serial version                                                         DATE: 07-Jan-25          TIME: 16:17:17  
 **********************************************************************************************************************************

 SHA1:             d3391fb321d180b9e53a06fe9a0246f02e43302c
 **********************************************************************************************************************************

 Memory per process:       200 MW
 Total memory per node:    200 MW

 GA preallocation disabled
 GA check disabled

 Variable memory set to 200.0 MW

 ZCENTRE=MASS


 Geometry recognized as XYZ



 Using masses of most abundant isotopes

 **********************************************************************************************************************************
 SETTING BASIS          =    6-311G(D,P)


 INPUT ERROR: 1 UNMATCHED PARENTHESIS

 BASIS,'6-311G(D',                                                                                                                                                                                                                                                                                                                                                                                                                                                                                                                                                                                                                                                                                                                                                                                                                                                                                                                                                                                                                                               

 GLOBAL ERROR fehler on processor   0                                         
