[Molden Format]
[Molpro variables]
_NUMVAR=  1097.000000000000    
_AVOGAD= 0.6022140760000000E+24
_BOLTZ= 0.1380649000000000E-22
_CLIGHTSI=  299792458.0000000    
_JOULE= 0.4359744722207100E-17
_JPCAL=  4.184000000000000    
_PLANCK= 0.6626070150000000E-33
_BOHR= 0.5291772109030000E-10
_ECHARG= 0.1602176634000000E-18
_ENULL= 0.8854187812800001E-11
_MU= 0.1660539066600000E-26
_EMASS= 0.9109383701500001E-30
_AMU2AU=  1822.888486217313    
_CLIGHT=  29979245800.00000    
_EV= 0.3674932217565494E-01
_KJOULE= 0.3808798847133432E-03
_KJOULE/MOL= 0.3808798847133432E-03
_CM= 0.4556335252912009E-05
_CM-1= 0.4556335252912009E-05
_DEB2SI= 0.3335640951981520E-29
_KCAL= 0.1593601437640628E-02
_KCAL/MOL= 0.1593601437640628E-02
_KELVIN= 0.3166811563455608E-05
_HERTZ= 0.1519829846057038E-15
_HZ= 0.1519829846057038E-15
_TOA= 0.5291772109030000    
_TOANG= 0.5291772109030000    
_TORAD= 0.1745329251994330E-01
_TOCM=  219474.6313631965    
_TODEBYE=  2.541746473194078    
_TOE= 0.4803204712570263E-09
_TOEV=  27.21138624598803    
_TOHERTZ=  6579683920501656.    
_TOHZ=  6579683920501656.    
_TOK=  315775.0248040668    
_TOKCAL=  627.5094740630558    
_TOKELVIN=  315775.0248040668    
_TOKJ=  2625.499639479825    
_TOKJOULE=  2625.499639479825    
_TOKG= 0.1660539066600000E-26
_ANG=  1.889726124625770    
_ANGSTROM=  1.889726124625770    
_RPAREF=  0.000000000000000    
_RPADISS=  0.000000000000000    
_IGNORE_UNDEF=  2.000000000000000    
_STRICTCHECK=  0.000000000000000    
!SEWARD=  0.000000000000000    
!MULTI=  0.000000000000000    
!DFMULTI=  0.000000000000000    
!NUMHESS=  0.000000000000000    
_SEW_ONEEL=  0.000000000000000    
_CPPDONE=FALSE
_DKROLL_DONE=  0.000000000000000    
_FNUC_DONE=  0.000000000000000    
_FOCKDONE=TRUE
_GRADONE=FALSE
_HESSDONE=TRUE
_INTDONE=TRUE
_SCFDONE=TRUE
_MODUL_BLOCK=FALSE
_MODUL_SLATER=TRUE
_MODUL_MRCC=FALSE
_MODUL_NBO6=FALSE
_MODUL_NECI=FALSE
_MODUL_AIMS=TRUE
_MODUL_HDF5=FALSE
_MODUL_GECCO=FALSE
_ISWINDOWS=FALSE
_MRCC_EXEC=
_FITC_AO_SAVED=FALSE
_FITC_MO_SAVED=FALSE
_LSTYP=SEWARD
_INTYP=INTS
_GEOMTYP=XYZ
_GRADTYP=ALASKA
_DIRECT=FALSE
_DKHO= -1.000000000000000    
_FNUC=  0.000000000000000    
_SYNCM=  0.000000000000000    
_BASIS=6-311G(D,P)
_ZCENTRE=MASS
_ZORIENT=  1.000000000000000    
_NELEC=  26.00000000000000    
!SPIN=  0.000000000000000    
_OPTCONV= 0.2880172725445681E-05
_QSDSTEP=  0.000000000000000    
_QSDIRC=  0.000000000000000    
_PROGRAM=FREQ
_CPUSTEP=  7.280000000000001    
_SYSSTEP= 0.5099999999999998    
_WALLSTEP=  7.800000000000000    
!DFSCF=  0.000000000000000    
!SCSGRD=  0.000000000000000    
_NCEN=  9.000000000000000    
_CPUTOT=  32.61000000000000    
_DFTEXFAC=  1.000000000000000    
_DMX=-0.1752858481816048E-04
_DMY= 0.6732553280413932    
_DMZ=-0.6503181721502527E-01
_DMX_SCF=-0.1752858481816048E-04
_DMY_SCF= 0.6732553280413932    
_DMZ_SCF=-0.6503181721502527E-01
_FREQUENCIES= 0.2362746428380610E-04
_HOMO=  13.10000000000000    
_EHOMO=-0.4374872022168117    
_LUMO=  14.10000000000000    
_ELUMO= 0.1546628026952708    
_ENERGY= -154.1257441026800    
_ENERGY_METHOD=HF
_ENERGY_BASIS=6-311G(D,P)
_GEOMETRY_METHOD=HF
_GEOMETRY_BASIS=6-311G(D,P)
_ENUC=  82.46403073437712    
_GRADENERG= -154.1257441026830    
_GRADEXFAC=  9999.000000000000    
_GRADMETHOD=  1.000000000000000    
_NMRMETHOD=  0.000000000000000    
_NMRMAGNET=  0.000000000000000    
_VIRIAL= 0.3115566766656851E-07
!GRID_FREEZE= -1.000000000000000    
!NEESE_INDEX=  0.000000000000000    
_ITERATIONS=  8.000000000000000    
_LASTNELEC=  26.00000000000000    
_LASTSPIN=  0.000000000000000    
_LASTSYM=  1.000000000000000    
_MSNSTATES=  0.000000000000000    
_RS2PHASE=  0.000000000000000    
_NPROC_MPP=  6.000000000000000    
_NPROC_SMP=  6.000000000000000    
_NUMSTEP=  0.000000000000000    
_OPTCONVMX= 0.2342449517918235E-05
_OPTCONVRMS= 0.6285052156620046E-06
_OPTGRAD= 0.9290530962487680E-07
_OPTGRADMX= 0.4337517823354486E-07
_OPTGRADRMS= 0.2027360065806225E-07
!GMAXLAST= 0.4337517823354486E-07
!DMAXLAST= 0.2342449517918235E-05
!DELAST= 0.5684341886080801E-12
_OPTSTEP=  20.00000000000000    
_ORBITAL=  2100.200000000000    
_PI=  3.141592653589793    
_SEIG_MIN= 0.2945805279204498E-02
_SEWPROP=TRUE
_STATUS=  1.000000000000000    
_SYSTOT=  3.120000000000000    
_VERSION=  2024002.000000000    
_WALLTOT=  35.92000000000000    
_ZPE= 0.8523417625467283E-01
_DATE=09-Jan-25
_LASTORB=0
_OUTPUT=/home/lme/graph_IC/tests/ethanol_molpro.out
_PGROUP=C1
_TIME=08:53:57
_LIBMOL=/usr/local/molpro/molpro_2024.2.2_sockets/lib/
_VIGRDC=  0.000000000000000    
!VIBCNT=  0.000000000000000    
!SURFREC=  0.000000000000000    
!XSURFREC=  0.000000000000000    
!XPOLYREC=  0.000000000000000    
!ROTREC=  0.000000000000000    
!POLYREC=  0.000000000000000    
!DIPREC=  0.000000000000000    
!DIP4DREC=  0.000000000000000    
!DIPROT=  0.000000000000000    
!DIP4DROT=  0.000000000000000    
!PTREC=  0.000000000000000    
!PT4DREC=  0.000000000000000    
!VSCFREC=  0.000000000000000    
!VCIREC=  0.000000000000000    
!PVCIREC=  0.000000000000000    
!VMP2REC=  0.000000000000000    
!VMCSCFREC=  0.000000000000000    
!VMRCIREC=  0.000000000000000    
!VIBSTATEREC=  0.000000000000000    
!VIBSTATECNT=  0.000000000000000    
!VIBINFO=  0.000000000000000    
!GAREC=  0.000000000000000    
!SCFORB=  21002.00000000000    
!DEFCORE=  3.000000000000000    
!SCORE=  0.000000000000000    
!NEWMOL=  0.000000000000000    
!NEWSYM=  0.000000000000000    
_SLFILES=slscratch
_NGSSTO=  9.000000000000000    
_SIN=SIN
_COS=COS
_TAN=TAN
_ACOS=ACOS
_ASIN=ASIN
_ATAN=ATAN
_COSH=COSH
_SINH=SINH
_TANH=TANH
_ABS=ABS
_MOD=MOD
_ERF=ERF
_REFC=REFC
_ERFC=ERFC
_HYPOT=HYPOT
_J0=J0
_J1=J1
_JN=JN
_GAMMA=GAMMA
_LGAMMA=LGAMMA
_Y0=Y0
_Y1=Y1
_YN=YN
_EXP=EXP
_LOG=LOG
_LOG10=LOG10
_SQRT=SQRT
_INT=INT
_NINT=NINT
_MAX=MAX
_MIN=MIN
_COSMO=  0.000000000000000    
_COSMOIT=  0.000000000000000    
_COSMOES=  0.000000000000000    
_COSMOEDS=  0.000000000000000    
_COSMOEC=  0.000000000000000    
_COSMOEDCORR=  0.000000000000000    
_FEPSI=  1.000000000000000    
_SL_IsMM=  0.000000000000000    
_SL_NSYM=  1.000000000000000    
_SL_System_BitSw=  0.000000000000000    
_SL_Unique_atoms=  0.000000000000000    
_SL_GRAD=  0.000000000000000    
_SL_MAXUPD_Hess=  5.000000000000000    
_SL_N_PRINT_COD=  5.000000000000000    
_SL_PRINT_CODES=  0.000000000000000    
_SL_BasType=  0.000000000000000    
_SL_Energy_Pred=  0.000000000000000    
_SL_New_Coords=  0.000000000000000    
_SL_Total_Nuclea=  0.000000000000000    
_SL_Highest_Mltp=  0.000000000000000    
_SL_Ref_Geom=  0.000000000000000    
_SL_Symmetry_ope=  1.000000000000000    
_SL_agrad=  0.000000000000000    
_SL_GrdMax=  0.000000000000000    
_SL_GrdNorm=  0.000000000000000    
_SL_GrdRMS=  0.000000000000000    
_SL_Hss_Q=  0.000000000000000    
_SL_Hss_X=  0.000000000000000    
_SL_BMxOld=  0.000000000000000    
_SL_KtB=  0.000000000000000    
_SL_TROld=  0.000000000000000    
_SL_No_of_Intern=  0.000000000000000    
_SL_Hess=  0.000000000000000    
_SL_K=  0.000000000000000    
!LATTICE= -1.000000000000000    
!NEWLATTICE=  0.000000000000000    
!LATGRAD_VAR=FALSE
!SEW_LATTICE=  1.000000000000000    
!AIC_ONEEL=  0.000000000000000    
!LOCAL=  0.000000000000000    
!SAVEDOM= -1.000000000000000    
!RESTDOM= -1.000000000000000    
!SAVEDOM_HF= -1.000000000000000    
!RESTDOM_HF= -1.000000000000000    
!HESSREC=  5300.200000000000    
!FREQREC=  5400.200000000000    
!NMODREC=  5450.200000000000    
!GTASKS=  0.000000000000000    
!HTASKS=  0.000000000000000    
!SAVEDOM_EOM= -1.000000000000000    
!RESTDOM_EOM= -1.000000000000000    
!GRADSTATE= -1.000000000000000    
!DEBUG=  0.000000000000000    
!CFIT_CPHF=  0.000000000000000    
!RDOMAUX_CPHF=  0.000000000000000    
!THRAO_CPHF= 0.1000000000000000E-11
!THRMO_CPHF= 0.1000000000000000E-11
!THROV_CPHF= 0.1000000000000000E-13
!THRSW_CPHF= 0.1000000000000000E-11
!THRPROD_CPHF= 0.1000000000000000E-11
!THRAOPR_CPHF= 0.1000000000000000E-11
!CFIT_SCFGRD=  0.000000000000000    
!RDOMAUX_SCFGRD=  0.000000000000000    
!THRAO_SCFGRD= 0.1000000000000000E-11
!THRMO_SCFGRD= 0.1000000000000000E-11
!THROV_SCFGRD= 0.1000000000000000E-13
!THRSW_SCFGRD= 0.1000000000000000E-11
!THRPROD_SCFGRD= 0.1000000000000000E-11
!THRAOPR_SCFGRD= 0.1000000000000000E-11
!LOCFIT_SCF=  0.000000000000000    
!LOCFIT_MP2=  0.000000000000000    
_RIDOM=  0.000000000000000    
!CC2_METHOD=  0.000000000000000    
_BASIS2006=FALSE
_SVDDEL= -1.000000000000000    
_SVDDELA= -1.000000000000000    
_SVDDELP= -1.000000000000000    
_SVDDELF= -1.000000000000000    
_SVDDELS= -1.000000000000000    
_SVDDEL_ABS= -1.000000000000000    
_SVDDELA_ABS= -1.000000000000000    
_SVDDELP_ABS= -1.000000000000000    
_SVDDELF_ABS= -1.000000000000000    
_SVDDELS_ABS= -1.000000000000000    
_MAXBASIS=  0.000000000000000    
!OPT_CONICAL=  0.000000000000000    
!CLEARSP_JGRID=  0.000000000000000    
_GRDHYBR=  0.000000000000000    
_STATEGRAD=  1.000000000000000    
_4EXT_NDISKS=  1.000000000000000    
!EMBEDFLAG=  1.000000000000000    
!EMBED=FALSE
!EMBED_F12=FALSE
!EMBEDNUC=  0.000000000000000    
_EMBEDENERGY=  0.000000000000000    
!EMBED_DFC=FALSE
!NUM_VOIDS=  0.000000000000000    
_IBODY=  0.000000000000000    
_EMBE_CORR=  0.000000000000000    
!EMBED_PROJ=FALSE
!EMB_PROJ_ZMU=  1000000.000000000    
!CORRECTION_HF=  0.000000000000000    
!EMBED_AORB=  0.000000000000000    
!EMBED_NACORR=  0.000000000000000    
!EMBED_MP2=FALSE
!EMBED_TRUNC_PERTURBATION=FALSE
!EMBED_FROZEN=  0.000000000000000    
!EMBED_ACTIVE=  0.000000000000000    
_CHANGE_BASIS=FALSE
_RESTORE_BASIS=FALSE
_FIX_EMBED_GUESS=FALSE
_EMBED_SCF=FALSE
_NEOBAS=FALSE
_NEOOVE=FALSE
_PRINEO=FALSE
_HUZINAGA_T=FALSE
_HUZINAGA_F=FALSE
_HUZINAGA=FALSE
_HUZINAGA_CORRECT=FALSE
!FASTLATGRAD=  1.000000000000000    
!FASTVLAMBDA= -1.000000000000000    
!IFORCE= -1.000000000000000    
!USESYM= -1.000000000000000    
_SINDEX=  0.000000000000000    
_AVDOM_OSV=  0.000000000000000    
_AVDOM_PNO=  0.000000000000000    
_AVDOM_PNOCC=  0.000000000000000    
_AVDOM_TNO=  0.000000000000000    
_AVDOM_TNOIT=  0.000000000000000    
_AVDOM_PAO=  0.000000000000000    
_AVDOM_LMO=  0.000000000000000    
_CC2OSV_FLAG=  0.000000000000000    
_EOMCCSD_CONV=FALSE
_TMADC2_FLAG=FALSE
_PROPADC2_FLAG=FALSE
_LEN_VirQ=  0.000000000000000    
_GRDCC2LR_FLAG=FALSE
_GRDADC2_FLAG=FALSE
_RO_VGLOBAL=  0.000000000000000    
_OPT=FALSE
_FREQ=FALSE
_HESS=FALSE
_CMRCC_callName=EMPTY
_CMRCC_callCount=  0.000000000000000    
_GECCO_CIROOT=  1.000000000000000    
_SYM_CATION=  1.000000000000000    
_MON_A=FALSE
_MON_B=FALSE
_MAXGEOM=  100.0000000000000    
!MAXGEOM=  100.0000000000000    
_NCORE=  0.000000000000000    
_NLARGECORE=  0.000000000000000    
GX1= 0.2289186914034957E-05
GY1= 0.4090291359825908    
GZ1=  2.128237046015679    
GX2=-0.8888278730002074E-06
GY2=-0.2439675838314068    
GZ2=  1.260082734319015    
GX3= 0.8792181947900148    
GY3=-0.8781368243603530    
GZ3=  1.303215930306759    
GX4=-0.8792242846126911    
GY4=-0.8781307175732206    
GZ4=  1.303217442493515    
GX5= 0.8728141311121545E-06
GY5= 0.5684393138858501    
GZ5=-0.1776032994075459E-01
GX6=-0.8794441722879599    
GY6=  1.210632828400520    
GZ6=-0.4952517537181366E-01
GX7= 0.8794467888746137    
GY7=  1.210631727815330    
GZ7=-0.4952402014347967E-01
GX8= 0.1538024979179863E-05
GY8=-0.3213872887874694    
GZ8= -1.103844060170238    
GX9=-0.2303484426775467E-04
GY9= 0.1631926115700363    
GZ9= -1.908939960265500    
H1X1= 0.4325936315585628E-05
H1Y1= 0.7729530439994086    
H1Z1=  4.021785145252206    
C1X2=-0.1679641251913650E-05
C1Y2=-0.4610319167280371    
C1Z2=  2.381211262232516    
H2X3=  1.661481591941000    
H2Y3= -1.659438097989670    
H2Z3=  2.462721189529159    
H3X4= -1.661493100038006    
H3Y4= -1.659426557834489    
H3Z4=  2.462724047147978    
C2X5= 0.1649379665501159E-05
C2Y5=  1.074194621714439    
C2Z5=-0.3356215947101725E-01
H4X6= -1.661908627522445    
H4Y6=  2.287764483158049    
H4Z6=-0.9358901772678917E-01
H5X7=  1.661913572154602    
H5Y7=  2.287762403353463    
H5Z7=-0.9358683466162651E-01
OX8= 0.2906445983489537E-05
OY8=-0.6073339557443279    
OZ8= -2.085962958016679    
H6X9=-0.4352954698945224E-04
H6Y9= 0.3083893414298031    
H6Z9= -3.607373713255795    
[Atoms] Angs
H     1    1         0.0000022892        0.4090291360        2.1282370460
C     2    6        -0.0000008888       -0.2439675838        1.2600827343
H     3    1         0.8792181948       -0.8781368244        1.3032159303
H     4    1        -0.8792242846       -0.8781307176        1.3032174425
C     5    6         0.0000008728        0.5684393139       -0.0177603299
H     6    1        -0.8794441723        1.2106328284       -0.0495251754
H     7    1         0.8794467889        1.2106317278       -0.0495240201
O     8    8         0.0000015380       -0.3213872888       -1.1038440602
H     9    1        -0.0000230348        0.1631926116       -1.9089399603
[GTO]
   1 0
 s    3  1.00
  0.3386500000D+02  0.2549381454D-01
  0.5094790000D+01  0.1903731086D+00
  0.1158790000D+01  0.8521614860D+00
 s    1  1.00
  0.3258400000D+00  0.1000000000D+01
 s    1  1.00
  0.1027410000D+00  0.1000000000D+01
 p    1  1.00
  0.7500000000D+00  0.1000000000D+01
  
   2 0
 s    6  1.00
  0.4563240000D+04  0.1966650249D-02
  0.6820240000D+03  0.1523060193D-01
  0.1549730000D+03  0.7612690966D-01
  0.4445530000D+02  0.2608010331D+00
  0.1302900000D+02  0.6164620782D+00
  0.1827730000D+01  0.2210060280D+00
 s    3  1.00
  0.2096420000D+02  0.1146600807D+00
  0.4803310000D+01  0.9199996477D+00
  0.1459330000D+01 -0.3030682134D-02
 s    1  1.00
  0.4834560000D+00  0.1000000000D+01
 s    1  1.00
  0.1455850000D+00  0.1000000000D+01
 p    3  1.00
  0.2096420000D+02  0.4024869267D-01
  0.4803310000D+01  0.2375939567D+00
  0.1459330000D+01  0.8158538515D+00
 p    1  1.00
  0.4834560000D+00  0.1000000000D+01
 p    1  1.00
  0.1455850000D+00  0.1000000000D+01
 d    1  1.00
  0.6260000000D+00  0.1000000000D+01
  
   3 0
 s    3  1.00
  0.3386500000D+02  0.2549381454D-01
  0.5094790000D+01  0.1903731086D+00
  0.1158790000D+01  0.8521614860D+00
 s    1  1.00
  0.3258400000D+00  0.1000000000D+01
 s    1  1.00
  0.1027410000D+00  0.1000000000D+01
 p    1  1.00
  0.7500000000D+00  0.1000000000D+01
  
   4 0
 s    3  1.00
  0.3386500000D+02  0.2549381454D-01
  0.5094790000D+01  0.1903731086D+00
  0.1158790000D+01  0.8521614860D+00
 s    1  1.00
  0.3258400000D+00  0.1000000000D+01
 s    1  1.00
  0.1027410000D+00  0.1000000000D+01
 p    1  1.00
  0.7500000000D+00  0.1000000000D+01
  
   5 0
 s    6  1.00
  0.4563240000D+04  0.1966650249D-02
  0.6820240000D+03  0.1523060193D-01
  0.1549730000D+03  0.7612690966D-01
  0.4445530000D+02  0.2608010331D+00
  0.1302900000D+02  0.6164620782D+00
  0.1827730000D+01  0.2210060280D+00
 s    3  1.00
  0.2096420000D+02  0.1146600807D+00
  0.4803310000D+01  0.9199996477D+00
  0.1459330000D+01 -0.3030682134D-02
 s    1  1.00
  0.4834560000D+00  0.1000000000D+01
 s    1  1.00
  0.1455850000D+00  0.1000000000D+01
 p    3  1.00
  0.2096420000D+02  0.4024869267D-01
  0.4803310000D+01  0.2375939567D+00
  0.1459330000D+01  0.8158538515D+00
 p    1  1.00
  0.4834560000D+00  0.1000000000D+01
 p    1  1.00
  0.1455850000D+00  0.1000000000D+01
 d    1  1.00
  0.6260000000D+00  0.1000000000D+01
  
   6 0
 s    3  1.00
  0.3386500000D+02  0.2549381454D-01
  0.5094790000D+01  0.1903731086D+00
  0.1158790000D+01  0.8521614860D+00
 s    1  1.00
  0.3258400000D+00  0.1000000000D+01
 s    1  1.00
  0.1027410000D+00  0.1000000000D+01
 p    1  1.00
  0.7500000000D+00  0.1000000000D+01
  
   7 0
 s    3  1.00
  0.3386500000D+02  0.2549381454D-01
  0.5094790000D+01  0.1903731086D+00
  0.1158790000D+01  0.8521614860D+00
 s    1  1.00
  0.3258400000D+00  0.1000000000D+01
 s    1  1.00
  0.1027410000D+00  0.1000000000D+01
 p    1  1.00
  0.7500000000D+00  0.1000000000D+01
  
   8 0
 s    6  1.00
  0.8588500000D+04  0.1895150083D-02
  0.1297230000D+04  0.1438590063D-01
  0.2992960000D+03  0.7073200310D-01
  0.8737710000D+02  0.2400010105D+00
  0.2567890000D+02  0.5947970261D+00
  0.3740040000D+01  0.2808020123D+00
 s    3  1.00
  0.4211750000D+02  0.1138890124D+00
  0.9628370000D+01  0.9208111006D+00
  0.2853320000D+01 -0.3274470358D-02
 s    1  1.00
  0.9056610000D+00  0.1000000000D+01
 s    1  1.00
  0.2556110000D+00  0.1000000000D+01
 p    3  1.00
  0.4211750000D+02  0.3651139738D-01
  0.9628370000D+01  0.2371529830D+00
  0.2853320000D+01  0.8197019412D+00
 p    1  1.00
  0.9056610000D+00  0.1000000000D+01
 p    1  1.00
  0.2556110000D+00  0.1000000000D+01
 d    1  1.00
  0.1292000000D+01  0.1000000000D+01
  
   9 0
 s    3  1.00
  0.3386500000D+02  0.2549381454D-01
  0.5094790000D+01  0.1903731086D+00
  0.1158790000D+01  0.8521614860D+00
 s    1  1.00
  0.3258400000D+00  0.1000000000D+01
 s    1  1.00
  0.1027410000D+00  0.1000000000D+01
 p    1  1.00
  0.7500000000D+00  0.1000000000D+01


[MO]
 Sym=      1.1
 Ene=     -20.5401
 Spin= Alpha
 Occup=    2.000000
1 -0.000008264143581
2 0.000108380050077
3 0.000054631902741
4 0.000000000356173
5 -0.000008218385844
6 -0.000028326089073
7 0.000001011474231
8 -0.000001050037252
9 0.000003542236845
10 -0.000322930140205
11 -0.000000000073514
12 0.000001715800070
13 0.000005143905802
14 0.000000000020600
15 -0.000020439353891
16 -0.000004620847400
17 -0.000000004448828
18 -0.000149586081977
19 0.000025627507459
20 0.000002811310420
21 -0.000005311133215
22 0.000002499822795
23 0.000000000034116
24 -0.000000000181795
25 -0.000019136113138
26 0.000012700970297
27 -0.000057653436296
28 -0.000002306167259
29 0.000011516736739
30 -0.000003506106276
31 0.000023846712627
32 0.000012701386533
33 -0.000057656069309
34 -0.000002308170128
35 -0.000011516893775
36 -0.000003506387700
37 0.000023846479027
38 -0.000002943989900
39 -0.000028636726630
40 0.000055764180075
41 0.000801716613414
42 0.000000000204351
43 -0.000038802899634
44 -0.000009021749368
45 -0.000000000020756
46 -0.000086756237259
47 -0.000257954156615
48 0.000000005079158
49 -0.000308984127678
50 -0.000010137242141
51 -0.000048018103865
52 -0.000028729673161
53 0.000076747777026
54 0.000000001452901
55 0.000000000388985
56 0.000115399977883
57 0.000011959498512
58 -0.000104690352006
59 0.000008109748219
60 0.000008126803945
61 0.000033158270828
62 0.000013849653485
63 0.000011959351398
64 -0.000104695040262
65 0.000008109943244
66 -0.000008126251138
67 0.000033158571506
68 0.000013849069763
69 0.55143978625634
70 0.47166286832572
71 0.005676216428480
72 -0.000912241895386
73 -0.000000039121293
74 0.001710625930507
75 -0.000184159296933
76 0.000000014499172
77 -0.000627289580200
78 0.000096067999415
79 -0.000000004345504
80 -0.000008809944207
81 -0.000290540552018
82 0.000146766505944
83 -0.000027614542962
84 -0.000119151962982
85 0.000000002997931
86 -0.000000004292256
87 -0.000058414491032
88 0.000213377569684
89 0.000072881916640
90 0.000059546406597
91 0.000000001361257
92 0.000017599939545
93 0.000096837295724
 Sym=      2.1
 Ene=     -11.2697
 Spin= Alpha
 Occup=    2.000000
1 0.000002443245436
2 -0.000021874633328
3 -0.000002253678506
4 -0.000000000028428
5 0.000010712783964
6 -0.000023910841452
7 0.002934264951819
8 0.002377588985291
9 0.000243791880564
10 0.000672473210520
11 0.000000000183477
12 0.000087070790859
13 -0.000112725355871
14 0.000000000273050
15 0.000103835018992
16 -0.000236350153531
17 0.000000000906407
18 0.000213936856509
19 -0.000265125159427
20 -0.000053851751664
21 -0.000033619558502
22 0.000087471310166
23 -0.000000000153628
24 -0.000000000115434
25 -0.000070594486664
26 -0.000002520012812
27 -0.000015556933589
28 0.000027325920586
29 -0.000006233556807
30 0.000006953993215
31 -0.000009123196828
32 -0.000002520036977
33 -0.000015556384366
34 0.000027325741328
35 0.000006233744691
36 0.000006954039009
37 -0.000009123155998
38 0.56346459962850
39 0.46655629859915
40 0.004076649727369
41 -0.001970937231162
42 -0.000000002797090
43 -0.000581028935345
44 -0.000778353486874
45 0.000000000934339
46 0.000480771481735
47 0.000557615534710
48 -0.000000000605485
49 0.000095774361923
50 -0.000327477210321
51 0.000151626280661
52 -0.000015447863702
53 -0.000136178416959
54 -0.000000000167406
55 0.000000000663196
56 -0.000202624861472
57 0.000329966354338
58 0.000205938397590
59 0.000272669046532
60 -0.000006579703648
61 -0.000037687668860
62 -0.000014478146755
63 0.000329966201486
64 0.000205938674873
65 0.000272669201224
66 0.000006579598148
67 -0.000037687553206
68 -0.000014478144878
69 -0.000071866450853
70 -0.000126310931996
71 0.000260691418634
72 0.000565489429203
73 -0.000000000257797
74 0.000074630041139
75 0.000078826993131
76 0.000000000104265
77 0.000343936248611
78 0.000427233065448
79 -0.000000000981164
80 0.000145667923321
81 0.000173381512711
82 -0.000107872609503
83 0.000036649436399
84 0.000071223173104
85 -0.000000000226255
86 -0.000000000783010
87 0.000200342983266
88 -0.000008497319629
89 -0.000025032981529
90 -0.000024631200697
91 0.000000000697114
92 -0.000022444589353
93 0.000019740179447
 Sym=      3.1
 Ene=     -11.2083
 Spin= Alpha
 Occup=    2.000000
1 0.000361131634347
2 0.000194762511475
3 0.000190079185628
4 -0.000000000011052
5 0.000001719643715
6 -0.000033929803951
7 0.56331276032216
8 0.46652835590301
9 0.004550534911590
10 -0.001825347734948
11 0.000000000229044
12 0.000086017831457
13 0.000043013575241
14 -0.000000000087995
15 -0.000098720112381
16 0.000013556416316
17 -0.000000000161422
18 -0.000062625611182
19 0.000255198340528
20 0.000047068279667
21 0.000001340947330
22 -0.000048409226998
23 -0.000000000248046
24 0.000000000143048
25 0.000051943893493
26 0.000348609706342
27 0.000199967004354
28 0.000253464631881
29 -0.000002929159968
30 0.000012307877225
31 -0.000018661979854
32 0.000348609864196
33 0.000199966679326
34 0.000253465179777
35 0.000002929320014
36 0.000012307888231
37 -0.000018662006427
38 -0.003035642519395
39 -0.002575382404336
40 0.000237724921770
41 0.000627486581781
42 -0.000000000132302
43 -0.000082681364156
44 0.000123583107200
45 -0.000000000409949
46 -0.000158689659851
47 0.000252809184074
48 -0.000000001160250
49 -0.000151448197309
50 0.000242486878120
51 -0.000062086238036
52 -0.000021364242172
53 0.000083450480208
54 0.000000000179796
55 -0.000000000190944
56 -0.000107761487633
57 -0.000003978834898
58 -0.000028415857269
59 0.000007281277279
60 0.000004889109606
61 -0.000009506262938
62 0.000006084168970
63 -0.000003978909472
64 -0.000028415716623
65 0.000007282582272
66 -0.000004889153677
67 -0.000009506337357
68 0.000006084100468
69 0.000003240297917
70 0.000006251114672
71 -0.000021154225283
72 -0.000093564078940
73 0.000000000081648
74 -0.000001979363488
75 -0.000005176946664
76 0.000000000265512
77 0.000010646599461
78 -0.000014194254391
79 0.000000002193856
80 -0.000058718948526
81 0.000095661158389
82 0.000001784494389
83 -0.000001397900838
84 -0.000000386593551
85 0.000000000351038
86 -0.000000000391971
87 0.000010940898699
88 -0.000003672076802
89 0.000135602334995
90 0.000000862857547
91 0.000000001366127
92 -0.000013359286638
93 0.000026514272837
 Sym=      4.1
 Ene=      -1.3626
 Spin= Alpha
 Occup=    2.000000
1 0.002851821754245
2 0.003124101182852
3 -0.004058051911799
4 -0.000000012184682
5 -0.001343103584186
6 -0.001545960840821
7 -0.008009131971036
8 -0.013196238053323
9 0.032773163949506
10 0.029536884441726
11 0.000000006393924
12 0.001717481491507
13 -0.007303042530953
14 0.000000021603854
15 0.008026097463855
16 -0.020934819750049
17 0.000000095191399
18 0.007290343567546
19 -0.007321538264545
20 -0.002301768246189
21 -0.001717271734720
22 0.004019039980909
23 -0.000000000568081
24 -0.000000012296928
25 -0.005114077046512
26 0.003906507284259
27 0.006764566723076
28 0.000937223656811
29 -0.001967086386420
30 0.001028664235331
31 -0.000987067107320
32 0.003906493698714
33 0.006764600806688
34 0.000937272929121
35 0.001967094054451
36 0.001028653730545
37 -0.000987066037351
38 -0.038361563693912
39 -0.062929555131030
40 0.16046428578673
41 -0.007550532569603
42 -0.000000046167714
43 -0.024429715513253
44 -0.032077143712234
45 -0.000000133619767
46 -0.052448403670501
47 -0.058513445689364
48 -0.000000115849784
49 0.009767993508218
50 -0.001568899667420
51 -0.015290094544598
52 0.001092567004796
53 0.014197527539802
54 -0.000000005593630
55 0.000000050700843
56 0.021399779926602
57 0.015480627373295
58 0.032362920813128
59 -0.002493057858576
60 0.007192134733109
61 -0.005931422432068
62 -0.000463861006100
63 0.015480566019017
64 0.032362929707609
65 -0.002493046985837
66 -0.007192155269713
67 -0.005931425663385
68 -0.000463863640739
69 -0.10903345516638
70 -0.18208664065746
71 0.51519528024023
72 0.39137356638622
73 -0.000000791005154
74 0.034613516315669
75 -0.000596809765467
76 -0.000001335927578
77 0.060393837504296
78 0.000941789660485
79 -0.000000455933929
80 0.031741649419388
81 0.015369432345498
82 -0.008135802195091
83 0.001993223803790
84 0.006142578391301
85 -0.000000246452590
86 0.000000268540671
87 0.000612089926631
88 0.090586071513602
89 0.073149318533173
90 -0.000318418340342
91 0.000000653341064
92 -0.011096194026352
93 0.023497988693634
 Sym=      5.1
 Ene=      -1.0123
 Spin= Alpha
 Occup=    2.000000
1 0.059507844161155
2 0.076752838967284
3 -0.001580596482638
4 -0.000000046286357
5 -0.008500189017342
6 -0.012759105867776
7 -0.081687152533626
8 -0.13458014996741
9 0.33962669274197
10 0.19015066367505
11 0.000000031595995
12 0.013783641097360
13 -0.017989576198406
14 0.000000078117245
15 0.031404015394511
16 -0.040924015480667
17 0.000000071783486
18 0.008568007694514
19 -0.001910371707723
20 -0.005249306751955
21 0.000393031641489
22 0.004856275110466
23 0.000000003940554
24 -0.000000022267347
25 -0.008162301934435
26 0.056943658215678
27 0.077221585066741
28 -0.002026547813278
29 -0.012183589815680
30 0.009448945163943
31 -0.001304656440877
32 0.056943661647654
33 0.077221630060030
34 -0.002026521772502
35 0.012183656079747
36 0.009448869093235
37 -0.001304674081515
38 -0.065205366037699
39 -0.10826953287152
40 0.28405690153124
41 0.15683108214594
42 0.000000002675197
43 -0.006041271025530
44 0.043708704996097
45 -0.000000012117351
46 -0.027304730470937
47 0.072939835479408
48 -0.000000084510961
49 0.001711285206977
50 0.021396808307841
51 -0.005565902948108
52 0.000914500468546
53 0.004651402479563
54 -0.000000027469690
55 -0.000000040598162
56 -0.012481465711045
57 0.047051205122546
58 0.063824877485139
59 -0.004515341946686
60 0.010613075090503
61 -0.007908198968047
62 0.002166118714797
63 0.047051210385700
64 0.063824891011504
65 -0.004515369913848
66 -0.010613100721665
67 -0.007908178806440
68 0.002166122087738
69 0.026877211668073
70 0.045109440696262
71 -0.12952246952926
72 -0.12009763795921
73 0.000000586070491
74 0.004062977347038
75 0.052231999313170
76 0.000000950995730
77 0.006115269294395
78 0.083989660590222
79 0.000000323283563
80 0.007135016107392
81 0.037679215459749
82 -0.000114383845135
83 0.000333208497877
84 -0.000218824652742
85 0.000000113719345
86 -0.000000223200353
87 0.008631616475553
88 -0.052994431498614
89 -0.057698739593786
90 -0.004976254374929
91 -0.000000350195877
92 0.007348209905872
93 -0.009543814321891
 Sym=      6.1
 Ene=      -0.8363
 Spin= Alpha
 Occup=    2.000000
1 -0.064971963255299
2 -0.092623292707928
3 -0.011670199389911
4 0.000000031128488
5 0.009192279210705
6 0.009126804348982
7 0.061053062350437
8 0.10103852985128
9 -0.25603699650239
10 -0.17367670733165
11 0.000000086373426
12 0.031868767236482
13 -0.043394627182976
14 0.000000139797389
15 0.053475070552026
16 -0.072305906399291
17 0.000000253907754
18 0.020590246619816
19 -0.030458048162063
20 -0.007978382826312
21 0.000048194450481
22 0.007930188375832
23 0.000000014575527
24 -0.000000032593618
25 -0.013144075048775
26 -0.068102012853382
27 -0.094458596891515
28 -0.012188279304606
29 0.011364803917614
30 -0.006950713890029
31 -0.001559481265496
32 -0.068102047932740
33 -0.094458486486307
34 -0.012188253280390
35 -0.011364848889611
36 -0.006950621491966
37 -0.001559454404552
38 -0.067386665949850
39 -0.11260886632076
40 0.29834800089794
41 0.19364107034300
42 0.000000183991813
43 0.042755304735028
44 -0.030641779701136
45 0.000000286965222
46 0.057304655961602
47 -0.063723416441410
48 -0.000000106956126
49 0.041084863781566
50 -0.021892321006539
51 0.005820289629087
52 0.001103927996681
53 -0.006924217625768
54 -0.000000079670577
55 0.000000003198209
56 0.013084304359720
57 0.077146570788327
58 0.10990540629912
59 0.008752668078476
60 0.013981058492469
61 -0.007971639398795
62 0.000051061970982
63 0.077146649121373
64 0.10990557451070
65 0.008752564877307
66 -0.013981089279834
67 -0.007971632043436
68 0.000051101507229
69 0.020337382432945
70 0.034234560711076
71 -0.099438584254537
72 -0.10439108177367
73 0.000001004221784
74 0.040478853361847
75 0.074564620493719
76 0.000001618001536
77 0.063684177413472
78 0.11836949147655
79 0.000000780670748
80 0.045469380226389
81 0.065850536539451
82 -0.001748739096370
83 0.005486820606539
84 -0.003738081510168
85 0.000000094528060
86 -0.000000249230730
87 0.012308191538159
88 -0.053878016504358
89 -0.066491388060181
90 -0.016788300192702
91 -0.000000307599631
92 0.011010129279939
93 -0.006021996910720
 Sym=      7.1
 Ene=      -0.7045
 Spin= Alpha
 Occup=    2.000000
1 -0.045095609597739
2 -0.061741493394213
3 -0.015441005464391
4 0.000000092854690
5 0.002662630619312
6 0.004925880886267
7 0.004946584292084
8 0.008160625724155
9 -0.017815867683550
10 -0.042317453241897
11 0.000001039133571
12 -0.033864638810697
13 -0.039647705184851
14 0.000001713764316
15 -0.052509150251917
16 -0.061986586552727
17 0.000000488370504
18 -0.033533798573083
19 -0.027758054746108
20 0.003083041580604
21 -0.004748421957545
22 0.001665380376941
23 -0.000000079128042
24 -0.000000181318196
25 -0.004571773909558
26 0.009086366105285
27 0.015365077423470
28 0.005465743190705
29 -0.001692068016801
30 -0.000551180119852
31 -0.003013926187957
32 0.009084843360820
33 0.015362652472705
34 0.005465120293446
35 0.001691944162461