
 Working directory              : /tmp/lme/molpro.WHxGHr2emP/
 Global scratch directory       : /tmp/lme/molpro.WHxGHr2emP/
 Wavefunction directory         : /home/lme/wfu/
 Main file repository           : /tmp/lme/molpro.WHxGHr2emP/

 id        : liedlgroup

 Nodes     nprocs
 sv1-c724     6
 GA implementation: MPI file
 GA implementation (serial work in mppx): MPI file

 Using customized tuning parameters: mindgm=1; mindgv=20; mindgc=4; mindgr=1; noblas=0; minvec=7
 default implementation of scratch files=sf  


 Variables initialized (1045), CPU time= 0.01 sec
 memory, 500, m                                                                  ! Memory Requirements
 gthresh, optgrad=1.d-7,twoint=1.d-14,prefac=1.d-16                            ! Guntram Rezept um numerischen Schmutz zu entfernen
 orient,mass
 geometry={
   H1,      1.8853,     -0.0401,      1.0854
   C1,      1.2699,     -0.0477,      0.1772
   H2,      1.5840,      0.8007,     -0.4449
   H3,      1.5089,     -0.9636,     -0.3791
   C2,     -0.2033,      0.0282,      0.5345
   H4,     -0.4993,     -0.8287,      1.1714
   H5,     -0.4235,      0.9513,      1.1064
    O,     -0.9394,      0.0157,     -0.6674
   H6,     -1.8540,      0.0626,     -0.4252
 }
 
 mass, iso
 basis=6-311g(d,p)
 
 {hf
 start,atden}
 
 optg
 {frequencies, symm=auto, print=0,analytical}
 put,molden,ethanol.molden
 
 Commands initialized (836), CPU time= 0.01 sec, 720 directives.
 Default parameters read. Elapsed time= 0.13 sec

 Checking input...
 Passed
1


                                         ***  PROGRAM SYSTEM MOLPRO  ***
                                       Copyright, TTI GmbH Stuttgart, 2015
                                    Version 2024.2 linked Tue Oct  8 23:14:51 2024


 **********************************************************************************************************************************
 LABEL *                                                                                                                                                                 
  (6 PROC) 64 bit mpp version                                                            DATE: 09-Jan-25          TIME: 08:53:57  
 **********************************************************************************************************************************

 SHA1:             5a9813c25d9a7b7fe243115095799e27f07d421d
 **********************************************************************************************************************************

 Memory per process:       500 MW
 Total memory per node:   3000 MW

 GA preallocation disabled
 GA check disabled

 Variable memory set to 500.0 MW


 THRESHOLDS:

 ZERO    =  1.00D-12  ONEINT  =  1.00D-12  TWOINT  =  1.00D-14  PREFAC  =  1.00D-16  XXXXXX  =  1.00D-09  EORDER  =  1.00D-04
 ENERGY  =  0.00D+00  ETEST   =  0.00D+00  EDENS   =  0.00D+00  THRDEDEF=  1.00D-06  GRADIENT=  1.00D-05  STEP    =  1.00D-03
 ORBITAL =  1.00D-05  CIVEC   =  1.00D-05  COEFF   =  1.00D-04  PRINTCI =  5.00D-02  PUNCHCI =  9.90D+01  OPTGRAD =  1.00D-07
 OPTENERG=  1.00D-06  OPTSTEP =  3.00D-04  THRGRAD =  1.00D-10  COMPRESS=  1.00D-11  VARMIN  =  1.00D-07  VARMAX  =  1.00D-03
 THRDOUB =  0.00D+00  THRDIV  =  1.00D-05  THRRED  =  1.00D-07  THRPSP  =  1.00D+00  THRDC   =  1.00D-10  THRCS   =  1.00D-10
 THRNRM  =  1.00D-08  THREQ   =  0.00D+00  THRDE   =  1.00D+00  THRREF  =  1.00D-05  SPARFAC =  1.00D+00  THRDLP  =  1.00D-07
 THRDIA  =  1.00D-10  THRDLS  =  1.00D-07  THRGPS  =  0.00D+00  THRKEX  =  0.00D+00  THRDIS  =  2.00D-01  THRVAR  =  1.00D-10
 THRLOC  =  1.00D-06  THRGAP  =  1.00D-06  THRLOCT = -1.00D+00  THRGAPT = -1.00D+00  THRORB  =  1.00D-06  THRMLTP =  0.00D+00
 THRCPQCI=  1.00D-10  KEXTA   =  0.00D+00  THRCOARS=  0.00D+00  SYMTOL  =  1.00D-06  GRADTOL =  1.00D-06  THROVL  =  1.00D-08
 THRORTH =  1.00D-08  THRDLOVL= -1.00D+00  GRID    =  1.00D-06  GRIDMAX =  1.00D-03  DTMAX   =  0.00D+00  THROCCDE=  1.00D-01
 THROCCDE=  1.00D-01  THRPRINT=  2.50D-01

 ZCENTRE=MASS


 Geometry recognized as XYZ



 Using masses of most abundant isotopes

 **********************************************************************************************************************************
 SETTING BASIS          =    6-311G(D,P)


 Recomputing integrals since basis changed


 Using spherical harmonics

 Library entry H      S 6-311G               selected for orbital group  1
 Library entry H      P 6-311G**             selected for orbital group  1
 Library entry C      S 6-311G               selected for orbital group  2
 Library entry C      P 6-311G               selected for orbital group  2
 Library entry C      D 6-311G*              selected for orbital group  2
 Library entry O      S 6-311G               selected for orbital group  6
 Library entry O      P 6-311G               selected for orbital group  6
 Library entry O      D 6-311G*              selected for orbital group  6


 PROGRAM * SEWARD (Integral evaluation for generally contracted gaussian basis sets)     Author: Roland Lindh, 1990

 Geometry written to block  1 of record 700

 Orientation using atomic masses  
 Molecule type: Asymmetric top
 Rotational constants:       8.2066349      9.4394547     35.1124508 GHz

 Point group  C1  



 ATOMIC COORDINATES

 NR  ATOM    CHARGE       X              Y              Z

   1  H1      1.00    0.001212965    0.796172965    4.034190155
   2  C1      6.00   -0.000037415   -0.455906736    2.381786997
   3  H2      1.00    1.668814904   -1.680947652    2.519431471
   4  H3      1.00   -1.670562830   -1.678570400    2.520447398
   5  C2      6.00    0.000066435    1.081280584   -0.039755562
   6  H4      1.00   -1.684387471    2.321055642   -0.135571487
   7  H5      1.00    1.684613505    2.321115254   -0.135697287
   8  O       8.00    0.000101922   -0.623315723   -2.086337330
   9  H6      1.00   -0.001654187    0.367424986   -3.577289267

 Bond lengths in Bohr (Angstrom)

 1-2  2.073195924  2-3  2.074786570  2-4  2.074798377  2-5  2.868242186  5-6  2.093706724
     ( 1.097088037)     ( 1.097929770)     ( 1.097936018)     ( 1.517808400)     ( 1.107941885)

 5-7  2.093822737  5-8  2.663483716  8-9  1.790113939
     ( 1.108003276)     ( 1.409454884)     ( 0.947287501)

 Bond angles

  1-2-3  107.65160516   1-2-4  107.64479568   1-2-5  110.44035266   2-5-6  110.85211119

  2-5-7  110.85851949   2-5-8  107.80186484   3-2-4  107.17224834   3-2-5  111.86481987

  4-2-5  111.85589848   5-8-9  106.60498116   6-5-7  107.13014249   6-5-8  110.10923288

  7-5-8  110.10505751

 NUCLEAR CHARGE:                   26
 NUMBER OF PRIMITIVE AOS:         144
 NUMBER OF SYMMETRY AOS:          141
 NUMBER OF CONTRACTIONS:           90   (   90A   )
 NUMBER OF INNER CORE ORBITALS:     0   (    0A   )
 NUMBER OF OUTER CORE ORBITALS:     3   (    3A   )
 NUMBER OF VALENCE ORBITALS:       18   (   18A   )


 NUCLEAR REPULSION ENERGY   81.97320378


 Eigenvalues of metric

         1 0.305E-02 0.122E-01 0.169E-01 0.197E-01 0.228E-01 0.239E-01 0.275E-01 0.296E-01


 Contracted 2-electron integrals neglected if value below      1.0D-14
 AO integral compression algorithm  1   Integral accuracy      1.0D-14

     58.982 MB (compressed) written to integral file ( 74.7%)

     Node minimum: 7.340 MB, node maximum: 11.796 MB


 NUMBER OF SORTED TWO-ELECTRON INTEGRALS:    1397418.     BUFFER LENGTH:  32768
 NUMBER OF SEGMENTS:   1  SEGMENT LENGTH:    1397418      RECORD LENGTH: 524288

 Memory used in sort:       1.95 MW

 SORT1 READ     9843552. AND WROTE     1368024. INTEGRALS IN      4 RECORDS. CPU TIME:     0.17 SEC, REAL TIME:     0.18 SEC
 SORT2 READ     8159995. AND WROTE     8386560. INTEGRALS IN    168 RECORDS. CPU TIME:     0.03 SEC, REAL TIME:     0.07 SEC

 Node minimum:     1396054.  Node maximum:     1399467. integrals

 OPERATOR DM      FOR CENTER  0  COORDINATES:    0.000000    0.000000    0.000000


 **********************************************************************************************************************************
 DATASETS  * FILE   NREC   LENGTH (MB)   RECORD NAMES
              1      18       29.27       500      610      700      900      950      970     1000      129      960     1100   
                                          VAR    BASINP    GEOM    SYMINP    ZMAT    AOBASIS   BASIS     P2S    ABASIS      S 
                                         1400     1410     1200     1210     1080     1600     1650     1700   
                                           T        V       H0       H01     AOSYM     SMH    MOLCAS    OPER   

 PROGRAMS   *        TOTAL       INT
 CPU TIMES  *         1.06      0.83
 REAL TIME  *         1.59 SEC
 DISK USED  *        29.74 MB (local),      322.44 MB (total)
 GA USED    *         0.00 MB       (max)       0.00 MB       (current)
 **********************************************************************************************************************************


 Program * Restricted Hartree-Fock


 Generating basis MINAO
  Atom=H        basis=MINAO
  Atom=C        basis=MINAO
  Atom=O        basis=MINAO
 Number of basis functions:      21

 Orbital guess generated from atomic densities.

 Initial occupancy:  13

 NELEC=   26   SYM=1   MS2= 0   THRE=1.0D-08   THRD=1.0D-06   THRG=1.0D-06  HFMA2=F  DIIS_START=2   DIIS_MAX=10   DIIS_INCORE=F

 Level shifts:    0.00 (CLOSED)    0.00 (OPEN)    0.30 (GAP_MIN)

 ITER           ETOT              DE          GRAD        DDIFF     DIIS  NEXP   TIME(IT)  TIME(TOT)  DIAG
   1     -154.07040527    -154.07040527     0.00D+00     0.43D-01     0     0       0.02      0.08    start
   2     -154.11448802      -0.04408275     0.71D-02     0.54D-02     1     0       0.02      0.10    diag
   3     -154.12352186      -0.00903384     0.36D-02     0.19D-02     2     0       0.01      0.11    diag
   4     -154.12433308      -0.00081121     0.78D-03     0.66D-03     3     0       0.02      0.13    diag
   5     -154.12438151      -0.00004843     0.18D-03     0.18D-03     4     0       0.02      0.15    diag
   6     -154.12438468      -0.00000318     0.47D-04     0.51D-04     5     0       0.01      0.16    diag
   7     -154.12438486      -0.00000017     0.95D-05     0.13D-04     6     0       0.02      0.18    diag
   8     -154.12438487      -0.00000001     0.19D-05     0.27D-05     7     0       0.02      0.20    fixocc
   9     -154.12438487      -0.00000000     0.47D-06     0.40D-06     8     0       0.01      0.21    diag
  10     -154.12438487      -0.00000000     0.14D-06     0.13D-06     0     0       0.02      0.23    diag/orth

 Final occupancy:  13

 !RHF STATE 1.1 Energy               -154.124384865475
  RHF One-electron energy            -371.951062581170
  RHF Two-electron energy             135.853473939222
  RHF Kinetic energy                  154.020454404481
  RHF Nuclear energy                   81.973203776473
  RHF Virial quotient                  -1.000674783498

 !RHF STATE 1.1 Dipole moment          -0.00067900     0.68582591    -0.04777514
 Dipole moment /Debye                  -0.00172585     1.74319558    -0.12143228

 Orbital energies:

           1.1          2.1          3.1          4.1          5.1          6.1          7.1          8.1          9.1         10.1
    -20.542618   -11.276288   -11.214147    -1.361667    -1.007304    -0.832193    -0.700179    -0.641011    -0.572240    -0.527937

          11.1         12.1         13.1         14.1         15.1
     -0.521783    -0.488521    -0.436178     0.152922     0.182579


 HOMO     13.1    -0.436178 =     -11.8690eV
 LUMO     14.1     0.152922 =       4.1612eV
 LUMO-HOMO         0.589101 =      16.0302eV

 Orbitals saved in record  2100.2


 **********************************************************************************************************************************
 DATASETS  * FILE   NREC   LENGTH (MB)   RECORD NAMES
              1      18       29.27       500      610      700      900      950      970     1000      129      960     1100   
                                          VAR    BASINP    GEOM    SYMINP    ZMAT    AOBASIS   BASIS     P2S    ABASIS      S 
                                         1400     1410     1200     1210     1080     1600     1650     1700   
                                           T        V       H0       H01     AOSYM     SMH    MOLCAS    OPER   

              2       4        0.64       700     1000      520     2100   
                                         GEOM     BASIS   MCVARS     RHF  

 PROGRAMS   *        TOTAL    HF-SCF       INT
 CPU TIMES  *         1.29      0.23      0.83
 REAL TIME  *         1.83 SEC
 DISK USED  *        30.52 MB (local),      327.16 MB (total)
 GA USED    *         0.00 MB       (max)       0.00 MB       (current)
 **********************************************************************************************************************************


 PROGRAM * OPT (Geometry optimization)     Authors: F. Eckert and H.-J. Werner


 BFGS update of hessian

 *** Long output written to logfile /home/lme/graph_IC/tests/ethanol_molpro.log ***


 Geometry optimization using default procedure for command HF-SCF

 Geometry written to block  1 of record 700

 PQS Optimization using delocalized internal coordinates

 Point group c1. Number of degrees of freedom:   21

 ITER.   ENERGY(OLD)    ENERGY(NEW)      DE          GRADMAX     GRADNORM    GRADRMS     STEPMAX     STEPLEN     STEPRMS   CPU-time
   1  -154.12438487  -154.12566306    -0.00127819  0.01547642  0.02814000  0.00614065  0.05987555  0.11689653  0.02550891      1.19
   2  -154.12566306  -154.12573817    -0.00007511  0.00482628  0.00723920  0.00157972  0.01688216  0.03029790  0.00661154      2.43
   3  -154.12573817  -154.12574396    -0.00000578  0.00109177  0.00200169  0.00043680  0.00426488  0.00720988  0.00157332      3.73
   4  -154.12574396  -154.12574410    -0.00000014  0.00019911  0.00029440  0.00006424  0.00069599  0.00122181  0.00026662      4.98
   5  -154.12574410  -154.12574410    -0.00000001  0.00003505  0.00006282  0.00001371  0.00016636  0.00032627  0.00007120      6.23
   6  -154.12574410  -154.12574410    -0.00000000  0.00000943  0.00001510  0.00000329  0.00012349  0.00017125  0.00003737      7.41
   7  -154.12574410  -154.12574410    -0.00000000  0.00000162  0.00000313  0.00000068  0.00009529  0.00011946  0.00002607      8.57
   8  -154.12574410  -154.12574410    -0.00000000  0.00000095  0.00000162  0.00000035  0.00007688  0.00009625  0.00002100      9.74
   9  -154.12574410  -154.12574410    -0.00000000  0.00000075  0.00000131  0.00000029  0.00005996  0.00007555  0.00001649     10.99
  10  -154.12574410  -154.12574410    -0.00000000  0.00000059  0.00000106  0.00000023  0.00004705  0.00005976  0.00001304     12.21
  11  -154.12574410  -154.12574410    -0.00000000  0.00000039  0.00000078  0.00000017  0.00003108  0.00004013  0.00000876     13.44
  12  -154.12574410  -154.12574410    -0.00000000  0.00000034  0.00000059  0.00000013  0.00002672  0.00003428  0.00000748     14.67
  13  -154.12574410  -154.12574410    -0.00000000  0.00000028  0.00000050  0.00000011  0.00002155  0.00002789  0.00000609     15.90
  14  -154.12574410  -154.12574410     0.00000000  0.00000023  0.00000040  0.00000009  0.00001786  0.00002302  0.00000502     17.11
  15  -154.12574410  -154.12574410    -0.00000000  0.00000019  0.00000034  0.00000007  0.00001449  0.00001884  0.00000411     18.32
  16  -154.12574410  -154.12574410    -0.00000000  0.00000015  0.00000028  0.00000006  0.00001170  0.00001532  0.00000334     19.44
  17  -154.12574410  -154.12574410     0.00000000  0.00000013  0.00000023  0.00000005  0.00000851  0.00001033  0.00000225     20.56
  18  -154.12574410  -154.12574410    -0.00000000  0.00000027  0.00000041  0.00000009  0.00002164  0.00002640  0.00000576     21.52
  19  -154.12574410  -154.12574410    -0.00000000  0.00000015  0.00000028  0.00000006  0.00000535  0.00000823  0.00000179     22.45
  20  -154.12574410  -154.12574410     0.00000000  0.00000004  0.00000009  0.00000002  0.00000234  0.00000288  0.00000063     23.41

 END OF GEOMETRY OPTIMIZATION.

 Geometry written to block  1 of record 700

 Recomputing wavefunction for reoriented structure

 Current geometry (xyz format, in Angstrom)

    9
 HF-SCF000/6-311G(D,P)  ENERGY=-154.12574410
 H           0.0000022892        0.4090291360        2.1282370460
 C          -0.0000008888       -0.2439675838        1.2600827343
 H           0.8792181948       -0.8781368244        1.3032159303
 H          -0.8792242846       -0.8781307176        1.3032174425
 C           0.0000008728        0.5684393139       -0.0177603299
 H          -0.8794441723        1.2106328284       -0.0495251754
 H           0.8794467889        1.2106317278       -0.0495240201
 O           0.0000015380       -0.3213872888       -1.1038440602
 H          -0.0000230348        0.1631926116       -1.9089399603

 **********************************************************************************************************************************


 **********************************************************************************************************************************
 DATASETS  * FILE   NREC   LENGTH (MB)   RECORD NAMES
              1      18       29.27       500      610      700      900      950      970     1000      129      960     1100   
                                          VAR    BASINP    GEOM    SYMINP    ZMAT    AOBASIS   BASIS     P2S    ABASIS      S 
                                         1400     1410     1200     1210     1080     1600     1650     1700   
                                           T        V       H0       H01     AOSYM     SMH    MOLCAS    OPER   

              2       4        0.64       700     1000      520     2100   
                                         GEOM     BASIS   MCVARS     RHF  

 PROGRAMS   *        TOTAL      OPTG    HF-SCF       INT
 CPU TIMES  *        25.33     24.04      0.23      0.83
 REAL TIME  *        28.12 SEC
 DISK USED  *        30.52 MB (local),      331.09 MB (total)
 SF USED    *         0.08 MB
 GA USED    *         0.00 MB       (max)       0.00 MB       (current)
 **********************************************************************************************************************************


 PROGRAM * HESSIAN

 PROGRAM * MCKINLEY (Hessian of the energy)     Author: A. Bernhardsson, R. Lindh

 Orbitals from record         2100.2

 Number of closed-shell orbitals: 13 ( 13 )
 Number of occupied orbitals:     13 ( 13 )

 Number of electrons= 26     Singlet     Space symmetry=1      Wavefunction type: CLOSED          


 McKinley needed      3.44 seconds of CPU time

 Entering CPHF calculation

 CPHF needed 215 iterations for 27 perturbations.  Total CPU time:    3.83 sec


 HF-SCF hessian saved to record  5300.2

 PROGRAM * FREQUENCIES (Calculation of harmonic vibrational spectra for HF-SCF)


 Permanent Dipole Moment [debye]
     1-   3    0.000000    0.000000    0.000000

 Dipole Moment Norm    0.0000000 [debye]

 Dipole Moment Derivatives [debye/ang]
              1             2             3             4             5             6             7             8
    1    0.00000000    0.00000000    0.00000000    0.00000000    0.00000000    0.00000000    0.00000000    0.00000000
    2    0.00000000    0.00000000    0.00000000    0.00000000    0.00000000    0.00000000    0.00000000    0.00000000
    3    0.00000000    0.00000000    0.00000000    0.00000000    0.00000000    0.00000000    0.00000000    0.00000000
              9            10            11            12            13            14            15            16
    1    0.00000000    0.00000000    0.00000000    0.00000000    0.00000000    0.00000000    0.00000000    0.00000000
    2    0.00000000    0.00000000    0.00000000    0.00000000    0.00000000    0.00000000    0.00000000    0.00000000
    3    0.00000000    0.00000000    0.00000000    0.00000000    0.00000000    0.00000000    0.00000000    0.00000000
             17            18            19            20            21            22            23            24
    1    0.00000000    0.00000000    0.00000000    0.00000000    0.00000000    0.00000000    0.00000000    0.00000000
    2    0.00000000    0.00000000    0.00000000    0.00000000    0.00000000    0.00000000    0.00000000    0.00000000
    3    0.00000000    0.00000000    0.00000000    0.00000000    0.00000000    0.00000000    0.00000000    0.00000000
             25            26            27
    1    0.00000000    0.00000000    0.00000000
    2    0.00000000    0.00000000    0.00000000
    3    0.00000000    0.00000000    0.00000000

 Projecting out rotations and translations

 Force Constants (Second Derivatives of the Energy) in [a.u.]
                             H1X1        H1Y1        H1Z1        C1X2        C1Y2    
           H1X1          0.0529743
           H1Y1          0.0000006   0.1686527
           H1Z1          0.0000007   0.1471092   0.2532762
           C1X2         -0.0564179  -0.0000005  -0.0000006   0.6365722
           C1Y2         -0.0000005  -0.1600736  -0.1294911   0.0000001   0.6182273
           C1Z2         -0.0000006  -0.1342600  -0.2335792   0.0000001   0.0402396
           H2X3          0.0020073  -0.0016049   0.0012097  -0.2447388   0.1327662
           H2Y3          0.0169518  -0.0122075   0.0016319   0.1309006  -0.1511735
           H2Z3          0.0253336  -0.0160701   0.0025931  -0.0050949   0.0033921
           H3X4          0.0020072   0.0016048  -0.0012096  -0.2447407  -0.1327656
           H3Y4         -0.0169519  -0.0122074   0.0016319  -0.1309000  -0.1511716
           H3Z4         -0.0253337  -0.0160699   0.0025932   0.0050952   0.0033922
           C2X5         -0.0022717   0.0000000  -0.0000001  -0.0974497  -0.0000000
           C2Y5          0.0000000   0.0151721  -0.0260738  -0.0000001  -0.1489832
           C2Z5          0.0000000   0.0146733  -0.0171878   0.0000003   0.0857254
           H4X6         -0.0000522   0.0002011  -0.0009953   0.0015923  -0.0014957
           H4Y6         -0.0002544   0.0007902   0.0004709   0.0179047  -0.0101428
           H4Z6          0.0001077  -0.0011171   0.0009424  -0.0289087   0.0190214
           H5X7         -0.0000522  -0.0002011   0.0009953   0.0015922   0.0014956
           H5Y7          0.0002544   0.0007902   0.0004709  -0.0179048  -0.0101427
           H5Z7         -0.0001077  -0.0011171   0.0009425   0.0289087   0.0190213
           OX8           0.0010883   0.0000000  -0.0000001   0.0037306  -0.0000002
           OY8          -0.0000000  -0.0019246   0.0056232  -0.0000000   0.0171420
           OZ8           0.0000000   0.0054535  -0.0082969  -0.0000001  -0.0346147
           H6X9          0.0007168  -0.0000000   0.0000001  -0.0001402   0.0000001
           H6Y9          0.0000000   0.0010078  -0.0013731   0.0000000  -0.0036818
           H6Z9          0.0000000   0.0013980  -0.0012835  -0.0000000  -0.0066861
                             C1Z2        H2X3        H2Y3        H2Z3        H3X4    
           C1Z2          0.5826298
           H2X3         -0.0083128   0.2613385
           H2Y3          0.0066364  -0.1469534   0.1614120
           H2Z3         -0.0572085   0.0073911  -0.0089324   0.0568627
           H3X4          0.0083132  -0.0229905  -0.0177640   0.0004386   0.2613405
           H3Y4          0.0066366   0.0177643   0.0150489  -0.0006076   0.1469527
           H3Z4         -0.0572085  -0.0004385  -0.0006075  -0.0004893  -0.0073915
           C2X5          0.0000002   0.0008004   0.0195540  -0.0296181   0.0008004
           C2Y5          0.0653941  -0.0008057  -0.0140171   0.0206173   0.0008056
           C2Z5         -0.1856421   0.0012861  -0.0011374  -0.0008242  -0.0012861
           H4X6          0.0004501   0.0018000  -0.0006307   0.0000634   0.0012809
           H4Y6          0.0015205  -0.0000695  -0.0013945   0.0039707  -0.0000735
           H4Z6         -0.0000653   0.0005423   0.0044628  -0.0059837   0.0008132
           H5X7         -0.0004501   0.0012809  -0.0003727   0.0004631   0.0018000
           H5Y7          0.0015205   0.0000735   0.0001467  -0.0010347   0.0000695
           H5Z7         -0.0000653  -0.0008132  -0.0008625   0.0014278  -0.0005423
           OX8          -0.0000003   0.0003946  -0.0015944   0.0008652   0.0003946
           OY8           0.0163641  -0.0008592   0.0022058  -0.0013526   0.0008592
           OZ8          -0.0443547  -0.0008188  -0.0009642   0.0031614   0.0008188
           H6X9          0.0000002   0.0001076  -0.0000912   0.0001580   0.0001076
           H6Y9         -0.0040519  -0.0003113  -0.0000208   0.0000173   0.0003113
           H6Z9         -0.0045060  -0.0000459  -0.0002271   0.0004607   0.0000458
                             H3Y4        H3Z4        C2X5        C2Y5        C2Z5    
           H3Y4          0.1614100
           H3Z4         -0.0089326   0.0568627
           C2X5         -0.0195541   0.0296182   0.6628670
           C2Y5         -0.0140171   0.0206171  -0.0000006   0.6271230
           C2Z5         -0.0011373  -0.0008243   0.0000009  -0.0226770   0.5664836
           H4X6          0.0003727  -0.0004631  -0.2433323   0.1194474  -0.0135558
           H4Y6          0.0001467  -0.0010347   0.1140177  -0.1425933   0.0107182
           H4Z6         -0.0008625   0.0014278  -0.0145499   0.0136346  -0.0635381
           H5X7          0.0006307  -0.0000634  -0.2433326  -0.1194471   0.0135557
           H5Y7         -0.0013945   0.0039707  -0.1140176  -0.1425928   0.0107185
           H5Z7          0.0044629  -0.0059837   0.0145496   0.0136346  -0.0635379
           OX8           0.0015944  -0.0008652  -0.0774183   0.0000005  -0.0000015
           OY8           0.0022058  -0.0013526   0.0000015  -0.1972353  -0.0634560
           OZ8          -0.0009642   0.0031614   0.0000001  -0.1085505  -0.2062500
           H6X9          0.0000912  -0.0001580  -0.0006632  -0.0000000   0.0000005
           H6Y9         -0.0000208   0.0000173  -0.0000009   0.0171438  -0.0334276
           H6Z9         -0.0002271   0.0004607  -0.0000010   0.0234037  -0.0286792
                             H4X6        H4Y6        H4Z6        H5X7        H5Y7    
           H4X6          0.2545515
           H4Y6         -0.1353895   0.1605933
           H4Z6          0.0109065  -0.0018270   0.0717141
           H5X7         -0.0256105  -0.0162485   0.0029267   0.2545519
           H5Y7          0.0162486   0.0145334  -0.0005778   0.1353893   0.1605929
           H5Z7         -0.0029268  -0.0005778   0.0032910  -0.0109063  -0.0018269
           OX8           0.0100043   0.0205882   0.0272358   0.0100045  -0.0205881
           OY8           0.0005651  -0.0222664  -0.0324303  -0.0005652  -0.0222663
           OZ8           0.0057596  -0.0140597  -0.0097434  -0.0057597  -0.0140601
           H6X9         -0.0002340  -0.0004752   0.0009264  -0.0002341   0.0004752
           H6Y9          0.0006810   0.0003332  -0.0003041  -0.0006810   0.0003331
           H6Z9          0.0007614   0.0008189   0.0019552  -0.0007613   0.0008188
                             H5Z7        OX8         OY8         OZ8         H6X9    
           H5Z7          0.0717141
           OX8          -0.0272357   0.0547424
           OY8          -0.0324303  -0.0000103   0.4428805
           OZ8          -0.0097433   0.0000147  -0.1188440   0.7275800
           H6X9         -0.0009264  -0.0029410   0.0000089  -0.0000145   0.0032805
           H6Y9         -0.0003041   0.0000098  -0.2207414   0.2866039  -0.0000088
           H6Z9          0.0019550  -0.0000129   0.2278786  -0.4555146   0.0000138
                             H6Y9        H6Z9    
           H6Y9          0.2056470
           H6Z9         -0.2471777   0.4851517


 Atomic Masses
     1-   9    1.007825   12.000000    1.007825    1.007825   12.000000    1.007825    1.007825   15.994910    1.007825

 Mass weighted Second Derivative Matrix
                             H1X1        H1Y1        H1Z1        C1X2        C1Y2    
           H1X1          0.0525630
           H1Y1          0.0000006   0.1673432
           H1Z1          0.0000007   0.1459670   0.2513097
           C1X2         -0.0162231  -0.0000001  -0.0000002   0.0530477
           C1Y2         -0.0000002  -0.0460295  -0.0372355   0.0000000   0.0515189
           C1Z2         -0.0000002  -0.0386068  -0.0671662   0.0000000   0.0033533
           H2X3          0.0019917  -0.0015925   0.0012003  -0.0703752   0.0381772
           H2Y3          0.0168202  -0.0121127   0.0016192   0.0376408  -0.0434703
           H2Z3          0.0251369  -0.0159453   0.0025730  -0.0014650   0.0009754
           H3X4          0.0019916   0.0015923  -0.0012003  -0.0703757  -0.0381770
           H3Y4         -0.0168203  -0.0121126   0.0016192  -0.0376406  -0.0434697
           H3Z4         -0.0251370  -0.0159451   0.0025731   0.0014651   0.0009754
           C2X5         -0.0006532   0.0000000  -0.0000000  -0.0081208  -0.0000000
           C2Y5          0.0000000   0.0043628  -0.0074976  -0.0000000  -0.0124153
           C2Z5          0.0000000   0.0042194  -0.0049424   0.0000000   0.0071438
           H4X6         -0.0000518   0.0001995  -0.0009875   0.0004579  -0.0004301
           H4Y6         -0.0002524   0.0007841   0.0004673   0.0051486  -0.0029166
           H4Z6          0.0001069  -0.0011084   0.0009351  -0.0083128   0.0054696
           H5X7         -0.0000518  -0.0001995   0.0009875   0.0004578   0.0004301
           H5Y7          0.0002524   0.0007841   0.0004673  -0.0051486  -0.0029166
           H5Z7         -0.0001069  -0.0011084   0.0009351   0.0083128   0.0054696
           OX8           0.0002711   0.0000000  -0.0000000   0.0002693  -0.0000000
           OY8          -0.0000000  -0.0004794   0.0014006  -0.0000000   0.0012373
           OZ8           0.0000000   0.0013583  -0.0020665  -0.0000000  -0.0024985
           H6X9          0.0007113  -0.0000000   0.0000001  -0.0000403   0.0000000
           H6Y9          0.0000000   0.0010000  -0.0013624   0.0000000  -0.0010587
           H6Z9          0.0000000   0.0013872  -0.0012735  -0.0000000  -0.0019226
                             C1Z2        H2X3        H2Y3        H2Z3        H3X4    
           C1Z2          0.0485525
           H2X3         -0.0023904   0.2593094
           H2Y3          0.0019083  -0.1458124   0.1601588
           H2Z3         -0.0164504   0.0073337  -0.0088631   0.0564212
           H3X4          0.0023905  -0.0228120  -0.0176261   0.0004352   0.2593114
           H3Y4          0.0019084   0.0176264   0.0149320  -0.0006028   0.1458117
           H3Z4         -0.0164504  -0.0004351  -0.0006028  -0.0004855  -0.0073341
           C2X5          0.0000000   0.0002302   0.0056228  -0.0085167   0.0002301
           C2Y5          0.0054495  -0.0002317  -0.0040307   0.0059285   0.0002317
           C2Z5         -0.0154702   0.0003698  -0.0003271  -0.0002370  -0.0003698
           H4X6          0.0001294   0.0017861  -0.0006258   0.0000629   0.0012710
           H4Y6          0.0004372  -0.0000689  -0.0013836   0.0039399  -0.0000730
           H4Z6         -0.0000188   0.0005381   0.0044282  -0.0059373   0.0008068
           H5X7         -0.0001294   0.0012710  -0.0003698   0.0004595   0.0017861
           H5Y7          0.0004372   0.0000730   0.0001456  -0.0010266   0.0000689
           H5Z7         -0.0000188  -0.0008068  -0.0008558   0.0014167  -0.0005381
           OX8          -0.0000000   0.0000983  -0.0003971   0.0002155   0.0000983
           OY8           0.0011812  -0.0002140   0.0005494  -0.0003369   0.0002140
           OZ8          -0.0032015  -0.0002039  -0.0002402   0.0007874   0.0002039
           H6X9          0.0000001   0.0001067  -0.0000905   0.0001568   0.0001067
           H6Y9         -0.0011651  -0.0003089  -0.0000207   0.0000172   0.0003089
           H6Z9         -0.0012957  -0.0000455  -0.0002254   0.0004571   0.0000455
                             H3Y4        H3Z4        C2X5        C2Y5        C2Z5    
           H3Y4          0.1601568
           H3Z4         -0.0088633   0.0564212
           C2X5         -0.0056228   0.0085168   0.0552389
           C2Y5         -0.0040306   0.0059285  -0.0000001   0.0522602
           C2Z5         -0.0003270  -0.0002370   0.0000001  -0.0018898   0.0472070
           H4X6          0.0003698  -0.0004595  -0.0699708   0.0343474  -0.0038980
           H4Y6          0.0001456  -0.0010266   0.0327860  -0.0410030   0.0030820
           H4Z6         -0.0008558   0.0014167  -0.0041839   0.0039207  -0.0182705
           H5X7          0.0006258  -0.0000629  -0.0699709  -0.0343473   0.0038980
           H5Y7         -0.0013837   0.0039399  -0.0327860  -0.0410029   0.0030821
           H5Z7          0.0044282  -0.0059373   0.0041838   0.0039207  -0.0182705
           OX8           0.0003971  -0.0002155  -0.0055881   0.0000000  -0.0000001
           OY8           0.0005494  -0.0003369   0.0000001  -0.0142365  -0.0045803
           OZ8          -0.0002402   0.0007874   0.0000000  -0.0078352  -0.0148872
           H6X9          0.0000905  -0.0001568  -0.0001907  -0.0000000   0.0000001
           H6Y9         -0.0000207   0.0000172  -0.0000003   0.0049297  -0.0096122
           H6Z9         -0.0002253   0.0004571  -0.0000003   0.0067298  -0.0082468
                             H4X6        H4Y6        H4Z6        H5X7        H5Y7    
           H4X6          0.2525751
           H4Y6         -0.1343383   0.1593464
           H4Z6          0.0108218  -0.0018129   0.0711573
           H5X7         -0.0254116  -0.0161224   0.0029040   0.2525755
           H5Y7          0.0161224   0.0144206  -0.0005733   0.1343381   0.1593461
           H5Z7         -0.0029041  -0.0005733   0.0032654  -0.0108216  -0.0018127
           OX8           0.0024917   0.0051278   0.0067835   0.0024918  -0.0051278
           OY8           0.0001408  -0.0055458  -0.0080773  -0.0001408  -0.0055458
           OZ8           0.0014345  -0.0035018  -0.0024267  -0.0014346  -0.0035019
           H6X9         -0.0002322  -0.0004715   0.0009192  -0.0002323   0.0004715
           H6Y9          0.0006757   0.0003306  -0.0003018  -0.0006757   0.0003305
           H6Z9          0.0007555   0.0008125   0.0019401  -0.0007554   0.0008124
                             H5Z7        OX8         OY8         OZ8         H6X9    
           H5Z7          0.0711573
           OX8          -0.0067835   0.0034225
           OY8          -0.0080773  -0.0000006   0.0276888
           OZ8          -0.0024267   0.0000009  -0.0074301   0.0454882
           H6X9         -0.0009192  -0.0007325   0.0000022  -0.0000036   0.0032551
           H6Y9         -0.0003018   0.0000024  -0.0549794   0.0713836  -0.0000088
           H6Z9          0.0019398  -0.0000032   0.0567571  -0.1134537   0.0000137
                             H6Y9        H6Z9    
           H6Y9          0.2040503
           H6Z9         -0.2452585   0.4813849


 Mass Weighted 2nd Derivative Matrix Eigenvalues
     1-  10    0.000000    0.000000    0.000000    0.000000    0.000000    0.000000    0.002831    0.003650    0.007566    0.029430
    11-  20    0.035602    0.048037    0.055141    0.062532    0.072431    0.075836    0.087735    0.096210    0.096488    0.099218
    21-  27    0.103895    0.371781    0.377493    0.379981    0.395314    0.397878    0.663218

 Mass Weighted 2nd Derivative Matrix Eigenvectors
              1             2             3             4             5             6             7             8
    1    0.00000000    0.00000001    0.34565045   -0.00000001   -0.00000003    0.00000002    0.49480078    0.25707991
    2    0.13749607    0.01591040   -0.00000022   -0.10388089   -0.07644912    0.24643973   -0.00000232   -0.00000206
    3    0.06713367   -0.00067177   -0.00000026    0.13270973   -0.02031503   -0.04598136    0.00000015   -0.00000092
    4    0.04803278   -0.18321125    0.65307515    0.09180786    0.41760389    0.15327665   -0.04094297    0.08768320
    5    0.23939530    0.12490860    0.00000021   -0.13880831   -0.18706403    0.66708061   -0.00000017   -0.00000066
    6    0.40845168   -0.05497484    0.00000036    0.29272113   -0.12781743   -0.02079969    0.00000098   -0.00000470
    7    0.00572000   -0.15939628    0.14050787    0.06606401    0.22127488    0.10359049   -0.22978479   -0.04799428
    8    0.06285861   -0.10849295   -0.07455251    0.01039633    0.08484041    0.27691362   -0.32010252   -0.11166318
    9    0.18967588    0.02355064   -0.10230485    0.02482254   -0.03614247    0.01686969   -0.27010539   -0.15810039
   10    0.00572003   -0.15939538    0.14050856    0.06606366    0.22127387    0.10358995   -0.22978194   -0.04799331
   11    0.08266501    0.17887528    0.07455299   -0.09717581   -0.19547407    0.11500737    0.32010359    0.11166338
   12    0.14658286   -0.08505423    0.10230555    0.05184445   -0.07042990    0.04867752    0.27010590    0.15809595
   13    0.18766414    0.54724309    0.37771128   -0.14744109    0.05670330   -0.18459512   -0.17497788   -0.19525408
   14   -0.10658038    0.22794990   -0.00000028    0.18449160   -0.07411603    0.39729512    0.00000043    0.00000328
   15    0.18849291    0.01053614   -0.00000033    0.49826331   -0.05600963   -0.19232011    0.00000037   -0.00000118
   16    0.06239731    0.26550279    0.16021971   -0.08250284   -0.08532035   -0.11319984   -0.10575805   -0.07795476
   17   -0.02347398    0.21052344    0.07457164    0.00199543   -0.16085823    0.03221976   -0.07647204   -0.02843383
   18   -0.01731507   -0.03625552    0.10233115    0.20499846   -0.01692991   -0.07911919   -0.02464791    0.00745619
   19    0.06239727    0.26550253    0.16021975   -0.08250275   -0.08532020   -0.11319972   -0.10575839   -0.07795388
   20   -0.04328522   -0.07691814   -0.07457188    0.10959482    0.11952767    0.19416747    0.07647250    0.02843533
   21    0.02578855    0.07237717   -0.10233144    0.17797002    0.01736640   -0.11093544    0.02464760   -0.00745703
   22    0.28276500    0.31971578   -0.36796790   -0.01985335    0.71492592    0.03500784    0.32109575   -0.12952086
   23   -0.46254244    0.36428330   -0.00000052    0.53024116    0.02526313    0.19395269    0.00000272   -0.00000627
   24    0.49576483   -0.07067637   -0.00000071    0.31533723   -0.15546759   -0.00514281   -0.00000271    0.00001035
   25    0.09616641    0.20916924   -0.14495644   -0.04699917    0.11790920   -0.05039280   -0.35783885    0.88198952
   26   -0.17927631    0.11025928    0.00000196    0.19212818    0.02696030   -0.00057668   -0.00001094    0.00001628
   27    0.08642235   -0.00641828    0.00000268    0.11468509   -0.02661270   -0.03093943    0.00000578   -0.00001476
              9            10            11            12            13            14            15            16
    1   -0.00000238    0.17622576   -0.00000196    0.00000137   -0.00000296    0.18020410   -0.00000779    0.10184747
    2   -0.25454200   -0.00000110   -0.36297211   -0.18513969    0.16884487    0.00000624    0.09231385    0.00000131
    3    0.04556856    0.00000072    0.41329167    0.19010377   -0.18061310   -0.00000851   -0.13943897   -0.00000318
    4   -0.00000057   -0.15711500    0.00000126   -0.00000223    0.00000550   -0.31943360    0.00001396   -0.26677178
    5   -0.09346813    0.00000008   -0.05025926    0.43580117   -0.04366955   -0.00001046   -0.23811381   -0.00000483
    6   -0.42069776    0.00000231    0.52771372   -0.10363248   -0.17814481   -0.00000373   -0.09370103   -0.00000236
    7   -0.00680606    0.17858184   -0.02895493   -0.02620265    0.03506416    0.07875043    0.04783480    0.04617570
    8   -0.04818766    0.28161747   -0.07581610    0.07022085    0.05423093    0.21061706    0.01605990    0.15992683
    9   -0.30555857   -0.33205755   -0.07815844   -0.35117128    0.06859306   -0.21077662    0.19105441   -0.15182726
   10    0.00680669    0.17858038    0.02895331    0.02620461   -0.03506725    0.07874536   -0.04784027    0.04617211
   11   -0.04818973   -0.28161903   -0.07581443    0.07021562    0.05423969   -0.21061689    0.01607856   -0.15992579
   12   -0.30556051    0.33205790   -0.07816132   -0.35116543    0.06858417    0.21079608    0.19103880    0.15183620
   13    0.00000268   -0.20622110    0.00000072    0.00000210   -0.00000758    0.49353611   -0.00001724    0.05947651
   14    0.39823120    0.00000180    0.38278772   -0.24785929    0.34086186    0.00001836    0.32586881    0.00000621
   15   -0.02207329    0.00000081   -0.08529311    0.38660044    0.49856653    0.00000497    0.07824578    0.00000182
   16   -0.00603475    0.20917213    0.00089795   -0.00169559   -0.01166525   -0.13379418    0.01021371    0.01796737
   17    0.10515373    0.35017097    0.09755864   -0.08758362    0.07465082   -0.39537482    0.10140408    0.04833101
   18   -0.04357650   -0.24272401   -0.14264268    0.03430570    0.29943462   -0.16552337   -0.22672531    0.63003272
   19    0.00603714    0.20917101   -0.00089891    0.00169168    0.01166977   -0.13379328   -0.01020820    0.01796871
   20    0.10515264   -0.35017014    0.09756019   -0.08757648    0.07463703    0.39538519    0.10138396   -0.04832906
   21   -0.04357660    0.24272384   -0.14264624    0.03431067    0.29942300    0.16552688   -0.22670276   -0.63004783
   22   -0.00000024    0.08425989   -0.00000136    0.00000117    0.00000156   -0.16930770    0.00000676    0.11824719
   23   -0.17340695    0.00000007   -0.18298021   -0.19831138   -0.29991105   -0.00001380   -0.30664359   -0.00000587
   24    0.53984209   -0.00000248   -0.34550976   -0.18327571   -0.36525842   -0.00000607   -0.03017608    0.00000039
   25   -0.00000694   -0.03366880    0.00000311   -0.00000364    0.00000253    0.00361395   -0.00000787    0.01409334
   26   -0.22019088   -0.00000491   -0.09899006    0.36138030   -0.25731540    0.00001094    0.59155888    0.00001433
   27    0.02991454   -0.00000178   -0.12186732    0.19733474   -0.20595849    0.00000542    0.38431983    0.00000968
             17            18            19            20            21            22            23            24
    1    0.00000127   -0.00004163    0.70390370    0.00000301   -0.00000091    0.00000043    0.00425508    0.00000184
    2    0.43436007    0.23800490    0.00001293   -0.21022480   -0.09168089    0.09612315    0.00000107    0.38041498
    3   -0.29505730   -0.11575360   -0.00000849    0.14525756    0.05757251    0.11434996    0.00000134    0.49667779
    4   -0.00000084    0.00001074   -0.17075370   -0.00000114   -0.00000027   -0.00000030    0.05340058    0.00000001
    5   -0.25234117   -0.00077411    0.00000121   -0.17077214   -0.01835877   -0.01574333   -0.00000005    0.07052869
    6    0.33629638    0.24231242    0.00001454    0.01710592   -0.02042067   -0.03191329   -0.00000046   -0.15614594
    7    0.16181527   -0.10483705    0.04997810    0.36089397    0.08481233    0.03260152   -0.09639725    0.43144645
    8    0.13535106   -0.17441136    0.14637148    0.46656395    0.11717499   -0.02538411    0.07025891   -0.30511303
    9   -0.40131029   -0.19830796    0.45736316    0.01205133    0.01453163   -0.00122000   -0.00161599    0.01149315
   10   -0.16181497    0.10482929    0.04999237   -0.36089038   -0.08481149   -0.03260078   -0.09640008   -0.43144827
   11    0.13535206   -0.17439414   -0.14639727    0.46656545    0.11717546   -0.02538324   -0.07025991   -0.30510982
   12   -0.40130952   -0.19825368   -0.45738693    0.01204661    0.01453316   -0.00121997    0.00161619    0.01149386
   13    0.00000150    0.00000125   -0.07381276   -0.00000161   -0.00000009    0.00000246   -0.31040079    0.00000050
   14   -0.01914831    0.12215901    0.00000718    0.05487734   -0.28726624    0.21856181    0.00000190   -0.03525459
   15    0.14144194   -0.43419840   -0.00002452   -0.22902187   -0.04832777   -0.02440926   -0.00000023    0.01175534
   16    0.02904094   -0.02142791    0.00216103   -0.11435105    0.40053663    0.56264660    0.53346722   -0.07969124
   17    0.02695710    0.05110674    0.03503485   -0.13526580    0.51278106   -0.38104345   -0.38825880    0.05622268
   18   -0.22256187    0.43821054   -0.02364944    0.20259664    0.07969970    0.02170234    0.02883116   -0.00634672
   19   -0.02904123    0.02142825    0.00216136    0.11435104   -0.40053612   -0.56265514    0.53345970    0.07968952
   20    0.02695935    0.05110621   -0.03502586   -0.13526797    0.51278158   -0.38104840    0.38825271    0.05622131
   21   -0.22256077    0.43820385    0.02369886    0.20259708    0.07969691    0.02170212   -0.02883028   -0.00634654
   22   -0.00000116    0.00000288    0.00743973    0.00000103    0.00000012   -0.00000008    0.00198383   -0.00000002
   23    0.06436077   -0.16385500   -0.00001009   -0.03028218   -0.02962466    0.00249532   -0.00000021   -0.00067077
   24   -0.01199422    0.03170259    0.00000172    0.02670787   -0.00374389    0.00867263    0.00000002   -0.00160106
   25    0.00000108   -0.00000379    0.00607268   -0.00000122    0.00000033    0.00000021    0.00052409    0.00000003
   26   -0.07857153    0.24250038    0.00001510    0.06817731    0.00438473    0.00694417    0.00000044   -0.00168172
   27   -0.05791448    0.17173082    0.00001046    0.05029469    0.00610625    0.00448363   -0.00000012   -0.00235506
             25            26            27
    1    0.00000213   -0.01440177    0.00000003
    2    0.42866647    0.00000110    0.00094945
    3    0.57413073    0.00000140    0.00077872
    4   -0.00000035   -0.30338204   -0.00000002
    5   -0.26389535    0.00000044   -0.00077447
    6   -0.15180762   -0.00000012    0.00037202
    7   -0.36481623    0.53257691    0.00033294
    8    0.24502753   -0.39251131   -0.00019775
    9   -0.02347064    0.02232719    0.00028394
   10    0.36481532    0.53258125   -0.00033290
   11    0.24502309    0.39250867   -0.00019769
   12   -0.02347109   -0.02232814    0.00028389
   13   -0.00000007   -0.05857457   -0.00000016
   14   -0.02276403    0.00000011    0.00514091
   15   -0.00096962   -0.00000005    0.00058654
   16   -0.04455041    0.09601124    0.00030691
   17    0.03216599   -0.06836157    0.00071213
   18   -0.00253676    0.00804936    0.00224396
   19    0.04455063    0.09601099   -0.00030659
   20    0.03216604    0.06836124    0.00071243
   21   -0.00253670   -0.00804921    0.00224368
   22    0.00000001    0.00140426   -0.00000633
   23    0.00129305   -0.00000002    0.11954411
   24    0.00125729    0.00000002   -0.21192338
   25   -0.00000001    0.00060447    0.00002546
   26    0.00095430    0.00000009   -0.49328624
   27    0.00005298   -0.00000009    0.83512012

   Low Vibration      Wavenumber
        Nr             [1/cm] 
        1                0.00
        2                0.00
        3                0.00
        4                0.00
        5                0.00
        6                0.00

     Vibration        Wavenumber
        Nr             [1/cm] 
        1              273.49
        2              310.57
        3              447.12
        4              881.87
        5              969.93
        6             1126.65
        7             1207.10
        8             1285.45
        9             1383.46
       10             1415.61
       11             1522.62
       12             1594.47
       13             1596.77
       14             1619.19
       15             1656.92
       16             3134.35
       17             3158.34
       18             3168.73
       19             3232.03
       20             3242.49
       21             4186.32

 FREQUENCIES * CALCULATION OF NORMAL MODES FOR HF-SCF


 Atomic Coordinates

  Nr  Atom  Charge       X              Y              Z

   1   H1    1.00    0.000004326    0.772953044    4.021785145
   2   C1    6.00   -0.000001680   -0.461031917    2.381211262
   3   H2    1.00    1.661481592   -1.659438098    2.462721190
   4   H3    1.00   -1.661493100   -1.659426558    2.462724047
   5   C2    6.00    0.000001649    1.074194622   -0.033562159
   6   H4    1.00   -1.661908628    2.287764483   -0.093589018
   7   H5    1.00    1.661913572    2.287762403   -0.093586835
   8   O     8.00    0.000002906   -0.607333956   -2.085962958
   9   H6    1.00   -0.000043530    0.308389341   -3.607373713

 Gradient norm at reference geometry: 0.11269D-06

 Normal Modes

                              1 A         2 A         3 A         4 A         5 A  
 Wavenumbers [cm-1]          273.49      310.57      447.12      881.87      969.93
 Intensities [km/mol]          0.00        0.00        0.00        0.00        0.00
 Intensities [relative]        0.00        0.00        0.00        0.00        0.00
           H1X1             0.49288     0.25608    -0.00000     0.17554    -0.00000
           H1Y1            -0.00000    -0.00000    -0.25355    -0.00000    -0.36156
           H1Z1             0.00000    -0.00000     0.04539     0.00000     0.41168
           C1X2            -0.01182     0.02531    -0.00000    -0.04536     0.00000
           C1Y2            -0.00000    -0.00000    -0.02698     0.00000    -0.01451
           C1Z2             0.00000    -0.00000    -0.12144     0.00000     0.15234
           H2X3            -0.22889    -0.04781    -0.00678     0.17789    -0.02884
           H2Y3            -0.31886    -0.11123    -0.04800     0.28052    -0.07552
           H2Z3            -0.26905    -0.15749    -0.30437    -0.33077    -0.07785
           H3X4            -0.22889    -0.04781     0.00678     0.17789     0.02884
           H3Y4             0.31886     0.11123    -0.04800    -0.28052    -0.07552
           H3Z4             0.26906     0.15748    -0.30437     0.33077    -0.07786
           C2X5            -0.05051    -0.05636     0.00000    -0.05953     0.00000
           C2Y5             0.00000     0.00000     0.11496     0.00000     0.11050
           C2Z5             0.00000    -0.00000    -0.00637     0.00000    -0.02462
           H4X6            -0.10535    -0.07765    -0.00601     0.20836     0.00089
           H4Y6            -0.07617    -0.02832     0.10474     0.34881     0.09718
           H4Z6            -0.02455     0.00743    -0.04341    -0.24178    -0.14209
           H5X7            -0.10535    -0.07765     0.00601     0.20836    -0.00090
           H5Y7             0.07618     0.02832     0.10474    -0.34881     0.09718
           H5Z7             0.02455    -0.00743    -0.04341     0.24178    -0.14209
           OX8              0.08029    -0.03239    -0.00000     0.02107    -0.00000
           OY8              0.00000    -0.00000    -0.04336     0.00000    -0.04575
           OZ8             -0.00000     0.00000     0.13498    -0.00000    -0.08639
           H6X9            -0.35645     0.87856    -0.00001    -0.03354     0.00000
           H6Y9            -0.00001     0.00002    -0.21933    -0.00000    -0.09861
           H6Z9             0.00001    -0.00001     0.02980    -0.00000    -0.12139

                              6 A         7 A         8 A         9 A        10 A  
 Wavenumbers [cm-1]         1126.65     1207.10     1285.45     1383.46     1415.61
 Intensities [km/mol]          0.00        0.00        0.00        0.00        0.00
 Intensities [relative]        0.00        0.00        0.00        0.00        0.00
           H1X1             0.00000    -0.00000     0.17950    -0.00001     0.10145
           H1Y1            -0.18442     0.16819     0.00001     0.09195     0.00000
           H1Z1             0.18936    -0.17991    -0.00001    -0.13890    -0.00000
           C1X2            -0.00000     0.00000    -0.09221     0.00000    -0.07701
           C1Y2             0.12580    -0.01261    -0.00000    -0.06874    -0.00000
           C1Z2            -0.02992    -0.05143    -0.00000    -0.02705    -0.00000
           H2X3            -0.02610     0.03493     0.07844     0.04765     0.04600
           H2Y3             0.06995     0.05402     0.20980     0.01600     0.15930
           H2Z3            -0.34981     0.06833    -0.20996     0.19031    -0.15124
           H3X4             0.02610    -0.03493     0.07844    -0.04765     0.04599
           H3Y4             0.06994     0.05403    -0.20980     0.01602    -0.15930
           H3Z4            -0.34980     0.06832     0.20998     0.19030     0.15125
           C2X5             0.00000    -0.00000     0.14247    -0.00000     0.01717
           C2Y5            -0.07155     0.09840     0.00001     0.09407     0.00000
           C2Z5             0.11160     0.14392     0.00000     0.02259     0.00000
           H4X6            -0.00169    -0.01162    -0.13327     0.01017     0.01790
           H4Y6            -0.08724     0.07436    -0.39384     0.10101     0.04814
           H4Z6             0.03417     0.29827    -0.16488    -0.22584     0.62758
           H5X7             0.00169     0.01162    -0.13327    -0.01017     0.01790
           H5Y7            -0.08724     0.07435     0.39385     0.10099    -0.04814
           H5Z7             0.03418     0.29826     0.16488    -0.22582    -0.62760
           OX8              0.00000     0.00000    -0.04233     0.00000     0.02957
           OY8             -0.04959    -0.07499    -0.00000    -0.07667    -0.00000
           OZ8             -0.04583    -0.09133    -0.00000    -0.00755     0.00000
           H6X9            -0.00000     0.00000     0.00360    -0.00001     0.01404
           H6Y9             0.35997    -0.25631     0.00001     0.58926     0.00001
           H6Z9             0.19657    -0.20516     0.00001     0.38282     0.00001

                             11 A        12 A        13 A        14 A        15 A  
 Wavenumbers [cm-1]         1522.62     1594.47     1596.77     1619.19     1656.92
 Intensities [km/mol]          0.00        0.00        0.00        0.00        0.00
 Intensities [relative]        0.00        0.00        0.00        0.00        0.00
           H1X1             0.00000    -0.00004     0.70117     0.00000    -0.00000
           H1Y1             0.43267     0.23708     0.00001    -0.20941    -0.09132
           H1Z1            -0.29391    -0.11530    -0.00001     0.14469     0.05735
           C1X2            -0.00000     0.00000    -0.04929    -0.00000    -0.00000
           C1Y2            -0.07284    -0.00022     0.00000    -0.04930    -0.00530
           C1Z2             0.09708     0.06995     0.00000     0.00494    -0.00589
           H2X3             0.16119    -0.10443     0.04978     0.35949     0.08448
           H2Y3             0.13482    -0.17373     0.14580     0.46475     0.11672
           H2Z3            -0.39975    -0.19754     0.45558     0.01200     0.01448
           H3X4            -0.16119     0.10442     0.04980    -0.35949    -0.08448
           H3Y4             0.13483    -0.17372    -0.14583     0.46475     0.11672
           H3Z4            -0.39975    -0.19748    -0.45561     0.01200     0.01448
           C2X5             0.00000     0.00000    -0.02131    -0.00000    -0.00000
           C2Y5            -0.00553     0.03526     0.00000     0.01584    -0.08293
           C2Z5             0.04083    -0.12534    -0.00001    -0.06611    -0.01395
           H4X6             0.02893    -0.02134     0.00215    -0.11391     0.39898
           H4Y6             0.02685     0.05091     0.03490    -0.13474     0.51079
           H4Z6            -0.22170     0.43651    -0.02356     0.20181     0.07939
           H5X7            -0.02893     0.02134     0.00215     0.11391    -0.39898
           H5Y7             0.02685     0.05091    -0.03489    -0.13474     0.51079
           H5Z7            -0.22170     0.43650     0.02361     0.20181     0.07939
           OX8             -0.00000     0.00000     0.00186     0.00000     0.00000
           OY8              0.01609    -0.04097    -0.00000    -0.00757    -0.00741
           OZ8             -0.00300     0.00793     0.00000     0.00668    -0.00094
           H6X9             0.00000    -0.00000     0.00605    -0.00000     0.00000
           H6Y9            -0.07827     0.24156     0.00002     0.06791     0.00437
           H6Z9            -0.05769     0.17106     0.00001     0.05010     0.00608

                             16 A        17 A        18 A        19 A        20 A  
 Wavenumbers [cm-1]         3134.35     3158.34     3168.73     3232.03     3242.49
 Intensities [km/mol]          0.00        0.00        0.00        0.00        0.00
 Intensities [relative]        0.00        0.00        0.00        0.00        0.00
           H1X1             0.00000     0.00424     0.00000     0.00000    -0.01435
           H1Y1             0.09575     0.00000     0.37894     0.42700     0.00000
           H1Z1             0.11391     0.00000     0.49475     0.57190     0.00000
           C1X2            -0.00000     0.01542     0.00000    -0.00000    -0.08758
           C1Y2            -0.00454    -0.00000     0.02036    -0.07618     0.00000
           C1Z2            -0.00921    -0.00000    -0.04508    -0.04382    -0.00000
           H2X3             0.03247    -0.09602     0.42977    -0.36340     0.53051
           H2Y3            -0.02529     0.06999    -0.30393     0.24407    -0.39098
           H2Z3            -0.00122    -0.00161     0.01145    -0.02338     0.02224
           H3X4            -0.03247    -0.09603    -0.42977     0.36340     0.53051
           H3Y4            -0.02528    -0.06999    -0.30392     0.24407     0.39098
           H3Z4            -0.00122     0.00161     0.01145    -0.02338    -0.02224
           C2X5             0.00000    -0.08960     0.00000    -0.00000    -0.01691
           C2Y5             0.06309     0.00000    -0.01018    -0.00657     0.00000
           C2Z5            -0.00705    -0.00000     0.00339    -0.00028    -0.00000
           H4X6             0.56046     0.53139    -0.07938    -0.04438     0.09564
           H4Y6            -0.37956    -0.38675     0.05600     0.03204    -0.06810
           H4Z6             0.02162     0.02872    -0.00632    -0.00253     0.00802
           H5X7            -0.56047     0.53138     0.07938     0.04438     0.09564
           H5Y7            -0.37957     0.38674     0.05600     0.03204     0.06810
           H5Z7             0.02162    -0.02872    -0.00632    -0.00253    -0.00802
           OX8             -0.00000     0.00050    -0.00000     0.00000     0.00035
           OY8              0.00062    -0.00000    -0.00017     0.00032    -0.00000
           OZ8              0.00217     0.00000    -0.00040     0.00031     0.00000
           H6X9             0.00000     0.00052     0.00000    -0.00000     0.00060
           H6Y9             0.00692     0.00000    -0.00168     0.00095     0.00000
           H6Z9             0.00447    -0.00000    -0.00235     0.00005    -0.00000

                             21 A  
 Wavenumbers [cm-1]         4186.32
 Intensities [km/mol]          0.00
 Intensities [relative]        0.00
           H1X1             0.00000
           H1Y1             0.00095
           H1Z1             0.00078
           C1X2            -0.00000
           C1Y2            -0.00022
           C1Z2             0.00011
           H2X3             0.00033
           H2Y3            -0.00020
           H2Z3             0.00028
           H3X4            -0.00033
           H3Y4            -0.00020
           H3Z4             0.00028
           C2X5            -0.00000
           C2Y5             0.00148
           C2Z5             0.00017
           H4X6             0.00031
           H4Y6             0.00071
           H4Z6             0.00224
           H5X7            -0.00031
           H5Y7             0.00071
           H5Z7             0.00223
           OX8             -0.00000
           OY8              0.02989
           OZ8             -0.05299
           H6X9             0.00003
           H6Y9            -0.49137
           H6Z9             0.83187


 Normal Modes of low/zero frequencies

                                  1           2           3           4           5
 Wavenumbers [cm-1]            0.00        0.00        0.00        0.00        0.00
 Intensities [km/mol]          0.00        0.00        0.00        0.00        0.00
 Intensities [relative]        0.00        0.00        0.00        0.00        0.00
           H1X1             0.00000     0.00000     0.34431    -0.00000    -0.00000
           H1Y1             0.13696     0.01585    -0.00000    -0.10348    -0.07615
           H1Z1             0.06687    -0.00067    -0.00000     0.13219    -0.02024
           C1X2             0.01387    -0.05289     0.18853     0.02650     0.12055
           C1Y2             0.06911     0.03606     0.00000    -0.04007    -0.05400
           C1Z2             0.11791    -0.01587     0.00000     0.08450    -0.03690
           H2X3             0.00570    -0.15878     0.13996     0.06581     0.22041
           H2Y3             0.06261    -0.10807    -0.07426     0.01036     0.08451
           H2Z3             0.18894     0.02346    -0.10191     0.02473    -0.03600
           H3X4             0.00570    -0.15878     0.13996     0.06581     0.22041
           H3Y4             0.08234     0.17818     0.07426    -0.09680    -0.19471
           H3Z4             0.14601    -0.08472     0.10191     0.05164    -0.07016
           C2X5             0.05417     0.15798     0.10904    -0.04256     0.01637
           C2Y5            -0.03077     0.06580    -0.00000     0.05326    -0.02140
           C2Z5             0.05441     0.00304    -0.00000     0.14384    -0.01617
           H4X6             0.06215     0.26447     0.15960    -0.08218    -0.08499
           H4Y6            -0.02338     0.20970     0.07428     0.00199    -0.16023
           H4Z6            -0.01725    -0.03611     0.10193     0.20420    -0.01686
           H5X7             0.06215     0.26447     0.15960    -0.08218    -0.08499
           H5Y7            -0.04312    -0.07662    -0.07428     0.10917     0.11906
           H5Z7             0.02569     0.07210    -0.10193     0.17728     0.01730
           OX8              0.07070     0.07994    -0.09201    -0.00496     0.17876
           OY8             -0.11565     0.09109    -0.00000     0.13258     0.00632
           OZ8              0.12396    -0.01767    -0.00000     0.07885    -0.03887
           H6X9             0.09579     0.20836    -0.14439    -0.04682     0.11745
           H6Y9            -0.17858     0.10983     0.00000     0.19138     0.02686
           H6Z9             0.08609    -0.00639     0.00000     0.11424    -0.02651

                                  6
 Wavenumbers [cm-1]            0.00
 Intensities [km/mol]          0.00
 Intensities [relative]        0.00
           H1X1             0.00000
           H1Y1             0.24548
           H1Z1            -0.04580
           C1X2             0.04425
           C1Y2             0.19257
           C1Z2            -0.00600
           H2X3             0.10319
           H2Y3             0.27584
           H2Z3             0.01680
           H3X4             0.10319
           H3Y4             0.11456
           H3Z4             0.04849
           C2X5            -0.05329
           C2Y5             0.11469
           C2Z5            -0.05552
           H4X6            -0.11276
           H4Y6             0.03209
           H4Z6            -0.07881
           H5X7            -0.11276
           H5Y7             0.19341
           H5Z7            -0.11050
           OX8              0.00875
           OY8              0.04850
           OZ8             -0.00129
           H6X9            -0.05020
           H6Y9            -0.00057
           H6Z9            -0.03082


 Frequencies dumped to record   5400.2
 Frequency information read from record  5400.2

 Zero point energy:  0.08523418 [H]    18706.74 [1/CM]      223.78 [KJ/MOL]


 **********************************************************************************************************************************
 DATASETS  * FILE   NREC   LENGTH (MB)   RECORD NAMES
              1      18       29.27       500      610      700      900      950      970     1000      129      960     1100   
                                          VAR    BASINP    GEOM    SYMINP    ZMAT    AOBASIS   BASIS     P2S    ABASIS      S 
                                         1400     1410     1200     1210     1080     1600     1650     1700   
                                           T        V       H0       H01     AOSYM     SMH    MOLCAS    OPER   

              2       7        0.77       700     1000      520     2100     5300     5450     5400   
                                         GEOM     BASIS   MCVARS     RHF     HESS     NMOD     FREQ   

              4       5        3.38      4100     4000     4200     4300     4400   

 PROGRAMS   *        TOTAL      FREQ      OPTG    HF-SCF       INT
 CPU TIMES  *        32.61      7.27     24.04      0.23      0.83
 REAL TIME  *        35.92 SEC
 DISK USED  *        30.52 MB (local),      331.09 MB (total)
 SF USED    *         3.38 MB
 GA USED    *         0.00 MB       (max)       0.00 MB       (current)
 **********************************************************************************************************************************

 Dump information in style MOLDEN to ethanol.molden                                                                  

 Molecular orbitals read from record     2100.2  Type=RHF/CANONICAL  
 Occupation numbers read from record     2100.2  Type=RHF/RHF  
 Orbital energies read from record       2100.2  Type=RHF/CANONICAL  
 Redundancy group numbers read from rec  2100.2  Type=RHF/RHF  

 DUMP ORBITAL  1.1 AS ORBITAL    1  occ=    2.0000  eig=  -20.5401  GROUP=   2
 DUMP ORBITAL  2.1 AS ORBITAL    2  occ=    2.0000  eig=  -11.2697  GROUP=   2
 DUMP ORBITAL  3.1 AS ORBITAL    3  occ=    2.0000  eig=  -11.2083  GROUP=   2
 DUMP ORBITAL  4.1 AS ORBITAL    4  occ=    2.0000  eig=   -1.3626  GROUP=   2
 DUMP ORBITAL  5.1 AS ORBITAL    5  occ=    2.0000  eig=   -1.0123  GROUP=   2
 DUMP ORBITAL  6.1 AS ORBITAL    6  occ=    2.0000  eig=   -0.8363  GROUP=   2
 DUMP ORBITAL  7.1 AS ORBITAL    7  occ=    2.0000  eig=   -0.7045  GROUP=   2
 DUMP ORBITAL  8.1 AS ORBITAL    8  occ=    2.0000  eig=   -0.6463  GROUP=   2
 DUMP ORBITAL  9.1 AS ORBITAL    9  occ=    2.0000  eig=   -0.5706  GROUP=   2
 DUMP ORBITAL 10.1 AS ORBITAL   10  occ=    2.0000  eig=   -0.5340  GROUP=   2
 DUMP ORBITAL 11.1 AS ORBITAL   11  occ=    2.0000  eig=   -0.5251  GROUP=   2
 DUMP ORBITAL 12.1 AS ORBITAL   12  occ=    2.0000  eig=   -0.4837  GROUP=   2
 DUMP ORBITAL 13.1 AS ORBITAL   13  occ=    2.0000  eig=   -0.4375  GROUP=   2

 Total electronic charge:      26.000000
 Frequency information read from record  5400.2

 **********************************************************************************************************************************

 HF/6-311G(D,P)//HF/6-311G(D,P) energy=   -154.125744102680

    OPTG(HF-SCF)          HF-SCF
   -154.12574410   -154.12438487
 **********************************************************************************************************************************
 Molpro calculation terminated
