[Molden Format]
[Molpro variables]
_NUMVAR=  1079.000000000000    
_AVOGAD= 0.6022140760000000E+24
_BOLTZ= 0.1380649000000000E-22
_CLIGHTSI=  299792458.0000000    
_JOULE= 0.4359744722207100E-17
_JPCAL=  4.184000000000000    
_PLANCK= 0.6626070150000000E-33
_BOHR= 0.5291772109030000E-10
_ECHARG= 0.1602176634000000E-18
_ENULL= 0.8854187812800001E-11
_MU= 0.1660539066600000E-26
_EMASS= 0.9109383701500001E-30
_AMU2AU=  1822.888486217313    
_CLIGHT=  29979245800.00000    
_EV= 0.3674932217565494E-01
_KJOULE= 0.3808798847133432E-03
_KJOULE/MOL= 0.3808798847133432E-03
_CM= 0.4556335252912009E-05
_CM-1= 0.4556335252912009E-05
_DEB2SI= 0.3335640951981520E-29
_KCAL= 0.1593601437640628E-02
_KCAL/MOL= 0.1593601437640628E-02
_KELVIN= 0.3166811563455608E-05
_HERTZ= 0.1519829846057038E-15
_HZ= 0.1519829846057038E-15
_TOA= 0.5291772109030000    
_TOANG= 0.5291772109030000    
_TORAD= 0.1745329251994330E-01
_TOCM=  219474.6313631965    
_TODEBYE=  2.541746473194078    
_TOE= 0.4803204712570263E-09
_TOEV=  27.21138624598803    
_TOHERTZ=  6579683920501656.    
_TOHZ=  6579683920501656.    
_TOK=  315775.0248040668    
_TOKCAL=  627.5094740630558    
_TOKELVIN=  315775.0248040668    
_TOKJ=  2625.499639479825    
_TOKJOULE=  2625.499639479825    
_TOKG= 0.1660539066600000E-26
_ANG=  1.889726124625770    
_ANGSTROM=  1.889726124625770    
_RPAREF=  0.000000000000000    
_RPADISS=  0.000000000000000    
_IGNORE_UNDEF=  2.000000000000000    
_STRICTCHECK=  0.000000000000000    
!SEWARD=  0.000000000000000    
!MULTI=  0.000000000000000    
!DFMULTI=  0.000000000000000    
!NUMHESS=  0.000000000000000    
_SEW_ONEEL=  0.000000000000000    
_CPPDONE=FALSE
_DKROLL_DONE=  0.000000000000000    
_FNUC_DONE=  0.000000000000000    
_FOCKDONE=TRUE
_GRADONE=FALSE
_HESSDONE=TRUE
_INTDONE=TRUE
_SCFDONE=TRUE
_MODUL_BLOCK=FALSE
_MODUL_SLATER=TRUE
_MODUL_MRCC=FALSE
_MODUL_NBO6=FALSE
_MODUL_NECI=FALSE
_MODUL_AIMS=TRUE
_MODUL_HDF5=FALSE
_MODUL_GECCO=FALSE
_ISWINDOWS=FALSE
_MRCC_EXEC=
_FITC_AO_SAVED=FALSE
_FITC_MO_SAVED=FALSE
_LSTYP=SEWARD
_INTYP=INTS
_GEOMTYP=XYZ
_GRADTYP=ALASKA
_DIRECT=FALSE
_DKHO= -1.000000000000000    
_FNUC=  0.000000000000000    
_SYNCM=  0.000000000000000    
_BASIS=6-311G(D,P)
_ZCENTRE=MASS
_ZORIENT=  1.000000000000000    
_NELEC=  18.00000000000000    
!SPIN=  0.000000000000000    
_OPTCONV= 0.1054661514051258E-02
_QSDSTEP=  0.000000000000000    
_QSDIRC=  0.000000000000000    
_PROGRAM=FREQ
_CPUSTEP=  1.320000000000000    
_SYSSTEP= 0.3999999999999998E-01
_WALLSTEP=  1.370000000000000    
!DFSCF=  0.000000000000000    
!SCSGRD=  0.000000000000000    
_NCEN=  6.000000000000000    
_CPUTOT=  3.660000000000000    
_DFTEXFAC=  1.000000000000000    
_DMX= 0.2367192294659222E-05
_DMY=-0.6119838869488975    
_DMZ= 0.3803892943128337    
_DMX_SCF= 0.2367192294659222E-05
_DMY_SCF=-0.6119838869488975    
_DMZ_SCF= 0.3803892943128337    
_FREQUENCIES= 0.3273397535881920E-04
_HOMO=  9.100000000000000    
_EHOMO=-0.4449051607031604    
_LUMO=  10.10000000000000    
_ELUMO= 0.1554976816266338    
_ENERGY= -115.0758120151391    
_ENERGY_METHOD=HF
_ENERGY_BASIS=6-311G(D,P)
_GEOMETRY_METHOD=HF
_GEOMETRY_BASIS=6-311G(D,P)
_ENUC=  40.81761997533098    
_GRADENERG= -115.0758118864998    
_GRADEXFAC=  9999.000000000000    
_GRADMETHOD=  1.000000000000000    
_NMRMETHOD=  0.000000000000000    
_NMRMAGNET=  0.000000000000000    
_VIRIAL= 0.4167442578739645E-03
!GRID_FREEZE= -1.000000000000000    
!NEESE_INDEX=  0.000000000000000    
_ITERATIONS=  10.00000000000000    
_LASTNELEC=  18.00000000000000    
_LASTSPIN=  0.000000000000000    
_LASTSYM=  1.000000000000000    
_MSNSTATES=  0.000000000000000    
_RS2PHASE=  0.000000000000000    
_NPROC_MPP=  6.000000000000000    
_NPROC_SMP=  6.000000000000000    
_NUMSTEP=  0.000000000000000    
_OPTCONVMX= 0.6662722499583330E-03
_OPTCONVRMS= 0.3179924111760149E-03
_OPTGRAD= 0.2850827989758981E-03
_OPTGRADMX= 0.2039720848057131E-03
_OPTGRADRMS= 0.8229631536503338E-04
!GMAXLAST= 0.2039720848057131E-03
!DMAXLAST= 0.6662722499583330E-03
!DELAST= 0.1357707745341941E-05
_OPTSTEP=  4.000000000000000    
_ORBITAL=  2100.200000000000    
_PI=  3.141592653589793    
_SEIG_MIN= 0.8485774308268195E-02
_SEWPROP=TRUE
_STATUS=  1.000000000000000    
_SYSTOT= 0.4100000000000000    
_VERSION=  2024002.000000000    
_WALLTOT=  4.080000000000000    
_ZPE= 0.5485951177803022E-01
_DATE=06-Dec-24
_LASTORB=0
_OUTPUT=/home/lme/graph_IC/tests/methanol_molpro.out
_PGROUP=C1
_TIME=09:51:11
_LIBMOL=/usr/local/molpro/molpro_2024.2.2_sockets/lib/
_VIGRDC=  0.000000000000000    
!VIBCNT=  0.000000000000000    
!SURFREC=  0.000000000000000    
!XSURFREC=  0.000000000000000    
!XPOLYREC=  0.000000000000000    
!ROTREC=  0.000000000000000    
!POLYREC=  0.000000000000000    
!DIPREC=  0.000000000000000    
!DIP4DREC=  0.000000000000000    
!DIPROT=  0.000000000000000    
!DIP4DROT=  0.000000000000000    
!PTREC=  0.000000000000000    
!PT4DREC=  0.000000000000000    
!VSCFREC=  0.000000000000000    
!VCIREC=  0.000000000000000    
!PVCIREC=  0.000000000000000    
!VMP2REC=  0.000000000000000    
!VMCSCFREC=  0.000000000000000    
!VMRCIREC=  0.000000000000000    
!VIBSTATEREC=  0.000000000000000    
!VIBSTATECNT=  0.000000000000000    
!VIBINFO=  0.000000000000000    
!GAREC=  0.000000000000000    
!SCFORB=  21002.00000000000    
!DEFCORE=  2.000000000000000    
!SCORE=  0.000000000000000    
!NEWMOL=  0.000000000000000    
!NEWSYM=  0.000000000000000    
_SLFILES=slscratch
_NGSSTO=  9.000000000000000    
_SIN=SIN
_COS=COS
_TAN=TAN
_ACOS=ACOS
_ASIN=ASIN
_ATAN=ATAN
_COSH=COSH
_SINH=SINH
_TANH=TANH
_ABS=ABS
_MOD=MOD
_ERF=ERF
_REFC=REFC
_ERFC=ERFC
_HYPOT=HYPOT
_J0=J0
_J1=J1
_JN=JN
_GAMMA=GAMMA
_LGAMMA=LGAMMA
_Y0=Y0
_Y1=Y1
_YN=YN
_EXP=EXP
_LOG=LOG
_LOG10=LOG10
_SQRT=SQRT
_INT=INT
_NINT=NINT
_MAX=MAX
_MIN=MIN
_COSMO=  0.000000000000000    
_COSMOIT=  0.000000000000000    
_COSMOES=  0.000000000000000    
_COSMOEDS=  0.000000000000000    
_COSMOEC=  0.000000000000000    
_COSMOEDCORR=  0.000000000000000    
_FEPSI=  1.000000000000000    
_SL_IsMM=  0.000000000000000    
_SL_NSYM=  1.000000000000000    
_SL_System_BitSw=  0.000000000000000    
_SL_Unique_atoms=  0.000000000000000    
_SL_GRAD=  0.000000000000000    
_SL_MAXUPD_Hess=  5.000000000000000    
_SL_N_PRINT_COD=  5.000000000000000    
_SL_PRINT_CODES=  0.000000000000000    
_SL_BasType=  0.000000000000000    
_SL_Energy_Pred=  0.000000000000000    
_SL_New_Coords=  0.000000000000000    
_SL_Total_Nuclea=  0.000000000000000    
_SL_Highest_Mltp=  0.000000000000000    
_SL_Ref_Geom=  0.000000000000000    
_SL_Symmetry_ope=  1.000000000000000    
_SL_agrad=  0.000000000000000    
_SL_GrdMax=  0.000000000000000    
_SL_GrdNorm=  0.000000000000000    
_SL_GrdRMS=  0.000000000000000    
_SL_Hss_Q=  0.000000000000000    
_SL_Hss_X=  0.000000000000000    
_SL_BMxOld=  0.000000000000000    
_SL_KtB=  0.000000000000000    
_SL_TROld=  0.000000000000000    
_SL_No_of_Intern=  0.000000000000000    
_SL_Hess=  0.000000000000000    
_SL_K=  0.000000000000000    
!LATTICE= -1.000000000000000    
!NEWLATTICE=  0.000000000000000    
!LATGRAD_VAR=FALSE
!SEW_LATTICE=  1.000000000000000    
!AIC_ONEEL=  0.000000000000000    
!LOCAL=  0.000000000000000    
!SAVEDOM= -1.000000000000000    
!RESTDOM= -1.000000000000000    
!SAVEDOM_HF= -1.000000000000000    
!RESTDOM_HF= -1.000000000000000    
!HESSREC=  5300.200000000000    
!FREQREC=  5400.200000000000    
!NMODREC=  5450.200000000000    
!GTASKS=  0.000000000000000    
!HTASKS=  0.000000000000000    
!SAVEDOM_EOM= -1.000000000000000    
!RESTDOM_EOM= -1.000000000000000    
!GRADSTATE= -1.000000000000000    
!DEBUG=  0.000000000000000    
!CFIT_CPHF=  0.000000000000000    
!RDOMAUX_CPHF=  0.000000000000000    
!THRAO_CPHF= 0.1000000000000000E-11
!THRMO_CPHF= 0.1000000000000000E-11
!THROV_CPHF= 0.1000000000000000E-13
!THRSW_CPHF= 0.1000000000000000E-11
!THRPROD_CPHF= 0.1000000000000000E-11
!THRAOPR_CPHF= 0.1000000000000000E-11
!CFIT_SCFGRD=  0.000000000000000    
!RDOMAUX_SCFGRD=  0.000000000000000    
!THRAO_SCFGRD= 0.1000000000000000E-11
!THRMO_SCFGRD= 0.1000000000000000E-11
!THROV_SCFGRD= 0.1000000000000000E-13
!THRSW_SCFGRD= 0.1000000000000000E-11
!THRPROD_SCFGRD= 0.1000000000000000E-11
!THRAOPR_SCFGRD= 0.1000000000000000E-11
!LOCFIT_SCF=  0.000000000000000    
!LOCFIT_MP2=  0.000000000000000    
_RIDOM=  0.000000000000000    
!CC2_METHOD=  0.000000000000000    
_BASIS2006=FALSE
_SVDDEL= -1.000000000000000    
_SVDDELA= -1.000000000000000    
_SVDDELP= -1.000000000000000    
_SVDDELF= -1.000000000000000    
_SVDDELS= -1.000000000000000    
_SVDDEL_ABS= -1.000000000000000    
_SVDDELA_ABS= -1.000000000000000    
_SVDDELP_ABS= -1.000000000000000    
_SVDDELF_ABS= -1.000000000000000    
_SVDDELS_ABS= -1.000000000000000    
_MAXBASIS=  0.000000000000000    
!OPT_CONICAL=  0.000000000000000    
!CLEARSP_JGRID=  0.000000000000000    
_GRDHYBR=  0.000000000000000    
_STATEGRAD=  1.000000000000000    
_4EXT_NDISKS=  1.000000000000000    
!EMBEDFLAG=  1.000000000000000    
!EMBED=FALSE
!EMBED_F12=FALSE
!EMBEDNUC=  0.000000000000000    
_EMBEDENERGY=  0.000000000000000    
!EMBED_DFC=FALSE
!NUM_VOIDS=  0.000000000000000    
_IBODY=  0.000000000000000    
_EMBE_CORR=  0.000000000000000    
!EMBED_PROJ=FALSE
!EMB_PROJ_ZMU=  1000000.000000000    
!CORRECTION_HF=  0.000000000000000    
!EMBED_AORB=  0.000000000000000    
!EMBED_NACORR=  0.000000000000000    
!EMBED_MP2=FALSE
!EMBED_TRUNC_PERTURBATION=FALSE
!EMBED_FROZEN=  0.000000000000000    
!EMBED_ACTIVE=  0.000000000000000    
_CHANGE_BASIS=FALSE
_RESTORE_BASIS=FALSE
_FIX_EMBED_GUESS=FALSE
_EMBED_SCF=FALSE
_NEOBAS=FALSE
_NEOOVE=FALSE
_PRINEO=FALSE
_HUZINAGA_T=FALSE
_HUZINAGA_F=FALSE
_HUZINAGA=FALSE
_HUZINAGA_CORRECT=FALSE
!FASTLATGRAD=  1.000000000000000    
!FASTVLAMBDA= -1.000000000000000    
!IFORCE= -1.000000000000000    
!USESYM= -1.000000000000000    
_SINDEX=  0.000000000000000    
_AVDOM_OSV=  0.000000000000000    
_AVDOM_PNO=  0.000000000000000    
_AVDOM_PNOCC=  0.000000000000000    
_AVDOM_TNO=  0.000000000000000    
_AVDOM_TNOIT=  0.000000000000000    
_AVDOM_PAO=  0.000000000000000    
_AVDOM_LMO=  0.000000000000000    
_CC2OSV_FLAG=  0.000000000000000    
_EOMCCSD_CONV=FALSE
_TMADC2_FLAG=FALSE
_PROPADC2_FLAG=FALSE
_LEN_VirQ=  0.000000000000000    
_GRDCC2LR_FLAG=FALSE
_GRDADC2_FLAG=FALSE
_RO_VGLOBAL=  0.000000000000000    
_OPT=FALSE
_FREQ=FALSE
_HESS=FALSE
_CMRCC_callName=EMPTY
_CMRCC_callCount=  0.000000000000000    
_GECCO_CIROOT=  1.000000000000000    
_SYM_CATION=  1.000000000000000    
_MON_A=FALSE
_MON_B=FALSE
_MAXGEOM=  100.0000000000000    
!MAXGEOM=  100.0000000000000    
_NCORE=  0.000000000000000    
_NLARGECORE=  0.000000000000000    
GX1= 0.6197115609980880E-04
GY1=  1.000487950253170    
GZ1=  1.095870611914136    
GX2=-0.1142711914135131E-06
GY2=-0.1302068634776078E-01
GZ2= 0.7171777307595247    
GX3= 0.8845549032631989    
GY3=-0.5200285278691062    
GZ3=  1.098242608663605    
GX4=-0.8846134391992901    
GY4=-0.5199231919589298    
GZ4=  1.098247597762933    
GX5=-0.6883183812223141E-07
GY5= 0.6299265429332640E-01
GZ5=-0.6800280828757140    
GX6=-0.9822015252539803E-06
GY6=-0.8052400231567488    
GZ6= -1.039137080136830    
HX1= 0.1171085126550684E-03
HY1=  1.890648216966702    
HZ1=  2.070895324543771    
CX2=-0.2159412557083165E-06
CY2=-0.2460553115192164E-01
CZ2=  1.355269493816101    
HX3=  1.671566509362288    
HY3=-0.9827114946649305    
HZ3=  2.075377748768771    
HX4= -1.671677126249949    
HY4=-0.9825124386436087    
HZ4=  2.075387176800109    
OX5=-0.1300733227053391E-06
OY5= 0.1190388644776186    
OZ5= -1.285066833689415    
HX6=-0.1856091881919476E-05
HY6= -1.521683108353568    
HZ6= -1.963684487401911    
[Atoms] Angs
H     1    1         0.0000619712        1.0004879503        1.0958706119
C     2    6        -0.0000001143       -0.0130206863        0.7171777308
H     3    1         0.8845549033       -0.5200285279        1.0982426087
H     4    1        -0.8846134392       -0.5199231920        1.0982475978
O     5    8        -0.0000000688        0.0629926543       -0.6800280829
H     6    1        -0.0000009822       -0.8052400232       -1.0391370801
[GTO]
   1 0
 s    3  1.00
  0.3386500000D+02  0.2549381454D-01
  0.5094790000D+01  0.1903731086D+00
  0.1158790000D+01  0.8521614860D+00
 s    1  1.00
  0.3258400000D+00  0.1000000000D+01
 s    1  1.00
  0.1027410000D+00  0.1000000000D+01
 p    1  1.00
  0.7500000000D+00  0.1000000000D+01
  
   2 0
 s    6  1.00
  0.4563240000D+04  0.1966650249D-02
  0.6820240000D+03  0.1523060193D-01
  0.1549730000D+03  0.7612690966D-01
  0.4445530000D+02  0.2608010331D+00
  0.1302900000D+02  0.6164620782D+00
  0.1827730000D+01  0.2210060280D+00
 s    3  1.00
  0.2096420000D+02  0.1146600807D+00
  0.4803310000D+01  0.9199996477D+00
  0.1459330000D+01 -0.3030682134D-02
 s    1  1.00
  0.4834560000D+00  0.1000000000D+01
 s    1  1.00
  0.1455850000D+00  0.1000000000D+01
 p    3  1.00
  0.2096420000D+02  0.4024869267D-01
  0.4803310000D+01  0.2375939567D+00
  0.1459330000D+01  0.8158538515D+00
 p    1  1.00
  0.4834560000D+00  0.1000000000D+01
 p    1  1.00
  0.1455850000D+00  0.1000000000D+01
 d    1  1.00
  0.6260000000D+00  0.1000000000D+01
  
   3 0
 s    3  1.00
  0.3386500000D+02  0.2549381454D-01
  0.5094790000D+01  0.1903731086D+00
  0.1158790000D+01  0.8521614860D+00
 s    1  1.00
  0.3258400000D+00  0.1000000000D+01
 s    1  1.00
  0.1027410000D+00  0.1000000000D+01
 p    1  1.00
  0.7500000000D+00  0.1000000000D+01
  
   4 0
 s    3  1.00
  0.3386500000D+02  0.2549381454D-01
  0.5094790000D+01  0.1903731086D+00
  0.1158790000D+01  0.8521614860D+00
 s    1  1.00
  0.3258400000D+00  0.1000000000D+01
 s    1  1.00
  0.1027410000D+00  0.1000000000D+01
 p    1  1.00
  0.7500000000D+00  0.1000000000D+01
  
   5 0
 s    6  1.00
  0.8588500000D+04  0.1895150083D-02
  0.1297230000D+04  0.1438590063D-01
  0.2992960000D+03  0.7073200310D-01
  0.8737710000D+02  0.2400010105D+00
  0.2567890000D+02  0.5947970261D+00
  0.3740040000D+01  0.2808020123D+00
 s    3  1.00
  0.4211750000D+02  0.1138890124D+00
  0.9628370000D+01  0.9208111006D+00
  0.2853320000D+01 -0.3274470358D-02
 s    1  1.00
  0.9056610000D+00  0.1000000000D+01
 s    1  1.00
  0.2556110000D+00  0.1000000000D+01
 p    3  1.00
  0.4211750000D+02  0.3651139738D-01
  0.9628370000D+01  0.2371529830D+00
  0.2853320000D+01  0.8197019412D+00
 p    1  1.00
  0.9056610000D+00  0.1000000000D+01
 p    1  1.00
  0.2556110000D+00  0.1000000000D+01
 d    1  1.00
  0.1292000000D+01  0.1000000000D+01
  
   6 0
 s    3  1.00
  0.3386500000D+02  0.2549381454D-01
  0.5094790000D+01  0.1903731086D+00
  0.1158790000D+01  0.8521614860D+00
 s    1  1.00
  0.3258400000D+00  0.1000000000D+01
 s    1  1.00
  0.1027410000D+00  0.1000000000D+01
 p    1  1.00
  0.7500000000D+00  0.1000000000D+01


[MO]
 Sym=      1.1
 Ene=     -20.5412
 Spin= Alpha
 Occup=    2.000000
1 0.000030165546827
2 -0.000133244901824
3 -0.000051363097627
4 -0.000000000662007
5 -0.000013111244587
6 -0.000001583359935
7 -0.000002533017705
8 -0.000033142331630
9 0.000095627367619
10 0.000571855608752
11 0.000000000488028
12 0.000016619037755
13 -0.000029200638286
14 -0.000000002549748
15 -0.000038561442747
16 -0.000262687273968
17 0.000000004522740
18 0.000147448216268
19 -0.000208074615075
20 -0.000052500304116
21 -0.000080110666074
22 0.000132610970190
23 -0.000000000045378
24 -0.000000000432270
25 0.000021493288974
26 0.000009945479089
27 -0.000065812411532
28 -0.000003803081537
29 -0.000014848016577
30 -0.000012552793633
31 0.000027131033704
32 0.000009944695091
33 -0.000065816802869
34 -0.000003800568313
35 0.000014845639286
36 -0.000012555327610
37 0.000027129715345
38 0.55143952813191
39 0.47166570477211
40 0.005654942727551
41 -0.000842437541066
42 -0.000000004725203
43 -0.001503460253760
44 0.000928233758006
45 0.000000002207856
46 0.000553919398222
47 -0.000332446899472
48 -0.000000001322429
49 -0.000134370512198
50 -0.000183560617694
51 0.000149432859039
52 -0.000009892341636
53 -0.000139540517403
54 -0.000000000546728
55 0.000000000106829
56 -0.000035925113606
57 0.000213412245692
58 0.000076608230414
59 0.000069113739623
60 -0.000000000117822
61 0.000041665611759
62 0.000082132513374
 Sym=      2.1
 Ene=     -11.2657
 Spin= Alpha
 Occup=    2.000000
1 0.000346319612381
2 0.000042944613182
3 0.000287247604443
4 0.000000002665930
5 0.000043514384696
6 -0.000025767359466
7 0.56343781431049
8 0.46655722628295
9 0.004145006770057
10 -0.001243903080033
11 0.000000002178066
12 -0.000036288344985
13 -0.000950204322412
14 0.000000001717539
15 0.000034774681310
16 0.000755516502520
17 -0.000000000503787
18 -0.000029809144906
19 -0.000137028963432
20 0.000112460836060
21 0.000164916818885
22 -0.000277377654945
23 0.000000003068908
24 -0.000000000210065
25 0.000034705797197
26 0.000349898417474
27 0.000074345460913
28 0.000260299992889
29 0.000020391897643
30 -0.000011708885957
31 -0.000033961036886
32 0.000349897932239
33 0.000074344949107
34 0.000260301301747
35 -0.000020393592525
36 -0.000011706881749
37 -0.000033960782043
38 -0.000073378031397
39 -0.000132223815622
40 0.000311275821096
41 0.000337913587161
42 0.000000000007357
43 -0.000015585030704
44 0.000110160107257
45 -0.000000000207222
46 -0.000011106465557
47 0.000560289059125
48 -0.000000000401862
49 -0.000015677810011
50 0.000142309614402
51 -0.000102115123893
52 -0.000122204123119
53 0.000224319247012
54 0.000000000018059
55 -0.000000000337692
56 -0.000049125500719
57 -0.000010413034478
58 0.000032432418026
59 -0.000030921772515
60 0.000000000213523
61 0.000046717259380
62 0.000023198644586
 Sym=      3.1
 Ene=      -1.3621
 Spin= Alpha
 Occup=    2.000000
1 0.014944719915360
2 0.031507674069223
3 0.001178433048734
4 -0.000000472685636
5 -0.007649820190093
6 -0.003629013215718
7 -0.037714156696461
8 -0.061591329869083
9 0.15339456758506
10 0.001992418307761
11 0.000000031701780
12 0.000358637982594
13 -0.041231064431272
14 0.000000065853725
15 -0.000444184512926
16 -0.081134631084850
17 -0.000000138363150
18 -0.004616335966179
19 0.004178404639383
20 -0.014443978936540
21 -0.013792184613036
22 0.028236163549576
23 -0.000000030528569
24 0.000000024695666
25 0.000176419335808
26 0.014897933800486
27 0.029743703997719
28 -0.000744896403491
29 -0.006537634956205
30 0.003926237476299
31 -0.003957283873234
32 0.014897804953584
33 0.029743635966212
34 -0.000744937611882
35 0.006538100751510
36 0.003925476040826
37 -0.003957322369365
38 -0.10952666596000
39 -0.18293415016478
40 0.51822722880432
41 0.38876797987389
42 -0.000000015011521
43 -0.029141967871111
44 0.019821549301124
45 -0.000000046704067
46 -0.049453845493391
47 0.036455590338837
48 0.000000017890501
49 -0.017062562599051
50 0.028589988371573
51 -0.008039398916583
52 0.003031042494739
53 0.005008356421844
54 0.000000011629178
55 -0.000000000794404
56 0.001875082892263
57 0.091530438463430
58 0.074847326396786
59 -0.001117267821552
60 0.000000011273604
61 0.023202683789283
62 0.012838691698911
 Sym=      4.1
 Ene=      -0.9267
 Spin= Alpha
 Occup=    2.000000
1 0.087002926697194
2 0.12460958317954
3 0.007358627175792
4 -0.000001230114707
5 -0.019939144137395
6 -0.005076008577737
7 -0.094372313005259
8 -0.15677530290684
9 0.40793489656572
10 0.24066856335011
11 0.000000249609451
12 0.005868185223949
13 0.028941231165754
14 0.000000383784365
15 0.009637581878281
16 0.024472094493452
17 -0.000000246892584
18 -0.006351918907804
19 0.023956267369373
20 -0.000637898824414
21 0.001838456826632
22 -0.001200558002218
23 0.000000088883394
24 0.000000000104554
25 -0.001965594966614
26 0.082509027458544
27 0.11493958945444
28 0.003691161829393
29 -0.016293074787914
30 0.009846990024517
31 -0.005397912110758
32 0.082509091745400
33 0.11493958935924
34 0.003690936327942
35 0.016294262175513
36 0.009845089278733
37 -0.005397927873994
38 0.031044876453562
39 0.052178276618687
40 -0.15062716730855
41 -0.14337835820817
42 0.000000112971510
43 0.035017885633535
44 0.084196296742018
45 0.000000166411504
46 0.056376409788378
47 0.13406197207345
48 0.000000162543809
49 0.021462083369936
50 0.073106389880956
51 -0.000984834019063
52 -0.010756173237582
53 0.011741007256645
54 -0.000000017281594
55 0.000000000678942
56 -0.006791283330276
57 -0.075921351491403
58 -0.088771645301663
59 -0.013277388856506
60 0.000000005410667
61 -0.016791493984265
62 -0.002381144309735
 Sym=      5.1
 Ene=      -0.6945
 Spin= Alpha
 Occup=    2.000000
1 0.023874318641400
2 0.026146569990792
3 0.009302811283267
4 -0.000000304390739
5 -0.000415305890533
6 -0.002640870057399
7 0.012865477274692
8 0.020879559584608
9 -0.049429840818611
10 -0.066697933731885
11 -0.000000050548700
12 0.086767996612341
13 -0.085072597073052
14 -0.000000030544587
15 0.14498071686269
16 -0.14527916481290
17 0.000000836357089
18 0.085595052361307
19 -0.054999157043530
20 -0.024010990978502
21 -0.004056970384612
22 0.028067961363113
23 0.000002182901183
24 0.000000074297457
25 -0.010946120952256
26 -0.068039047546657
27 -0.091160954204118
28 -0.023753031152062
29 0.008396843075630
30 -0.000587542395711
31 -0.000765202082257
32 -0.068032769354200
33 -0.091151789989608
34 -0.023749631044864
35 -0.008396514088169
36 -0.000586115409894
37 -0.000765510421921
38 -0.022044649804642
39 -0.037545582565415
40 0.11512258600881
41 0.16773154270840
42 0.000000030589717
43 0.16786157437907
44 0.095564799312730
45 0.000000069460412
46 0.25756560011287
47 0.15057262834362
48 -0.000000180745449
49 0.17258193311090
50 0.087079067155741
51 0.004981504952754
52 -0.019530321347928
53 0.014548816395174
54 -0.000000027422040
55 -0.000000027140519
56 -0.001212977567427
57 -0.13540179433410
58 -0.20223426466702
59 -0.037061521546900
60 -0.000000038238741
61 -0.023768082697452
62 -0.013145733694955
 Sym=      6.1
 Ene=      -0.6209
 Spin= Alpha
 Occup=    2.000000
1 0.000006857732211
2 0.000009600670499
3 0.000002879119499
4 0.008984454590048
5 -0.000001158601473
6 -0.000000228811499
7 0.000000151039978
8 0.000000258265024
9 -0.000000688146754
10 -0.000001331786265
11 0.16231823124346
12 -0.000000458841092
13 -0.000000793538171
14 0.26309842604223
15 -0.000000706331924
16 -0.000001426196708
17 0.14792421612961
18 0.000000883147832
19 -0.000000797823678
20 -0.000003474888769
21 0.000003361313224
22 0.000000113575545
23 -0.023065131621869
24 -0.001727501801848
25 0.000000118129443
26 0.10842806509930
27 0.16121892016382
28 0.064065519615124
29 -0.007134687971158
30 0.008360913197500
31 -0.004652358998829
32 -0.10843550485770
33 -0.16122848802605
34 -0.064068469789964
35 -0.007136615963239
36 -0.008359672799827
37 0.004652435486738
38 0.000000069270044
39 0.000000118572582
40 -0.000000348250136
41 -0.000000676665222
42 0.15617462061639
43 -0.000000285107384
44 0.000000703569812
45 0.24349946562477
46 -0.000000366674403
47 0.000001047478851
48 0.21095888064353
49 -0.000000541234446
50 0.000000875142890
51 -0.000000062219496
52 0.000000010606319
53 0.000000051613178
54 -0.008111256903544
55 0.012057310028765
56 -0.000000079002205
57 -0.000000205390606
58 -0.000000000290428
59 -0.000000100833608
60 0.016756057085915
61 -0.000000064858495
62 0.000000185022274
 Sym=      7.1
 Ene=      -0.5957
 Spin= Alpha
 Occup=    2.000000
1 -0.12733582574403
2 -0.17494867441426
3 -0.062141173814771
4 0.000000986930558
5 0.010920005644287
6 -0.000761287595030
7 -0.000113643743285
8 -0.000964896390694
9 0.005832571672819
10 -0.021325250356983
11 -0.000000908507832
12 -0.11015769525224
13 -0.12224151663996
14 -0.000001433243006
15 -0.17952206556589
16 -0.21487609465925
17 -0.000001988358399
18 -0.13163396884091
19 -0.098631427621544
20 -0.005611185166530
21 -0.033460476505194
22 0.039071661671723
23 -0.000002998640250
24 -0.000000011058805
25 -0.004363727008370
26 0.006279762866891
27 0.008342367227642
28 0.002426521488382
29 -0.002292543337808
30 -0.003569777314886
31 -0.005221675940078
32 0.006271403997570
33 0.008329892246999
34 0.002420769387264
35 0.002291583770791
36 -0.003570572328060
37 -0.005221248661096
38 0.014448822375089
39 0.024484304641453
40 -0.073880179044523
41 -0.11014052932359
42 -0.000000965561690
43 -0.065665428346402
44 0.17369004937084
45 -0.000001541697726
46 -0.10076584851871
47 0.26857202933463
48 -0.000001136739450
49 -0.091517177553785
50 0.21653934586625
51 -0.006506421625744
52 -0.004347218137067
53 0.010853639762811
54 0.000000014971190
55 -0.000000093168502
56 -0.017670587417394
57 -0.028392648125803
58 -0.032145736297678
59 -0.039777255808300
60 -0.000000068670315
61 -0.010426552498652
62 0.017573504369938
 Sym=      8.1
 Ene=      -0.4979
 Spin= Alpha
 Occup=    2.000000
1 -0.11489012403831
2 -0.22069146240045
3 -0.081003537922573
4 0.000001453559670
5 0.013966120619473
6 0.009578724331148
7 0.004836261218334
8 0.008385536293786
9 -0.026142885064668
10 0.018250446164208
11 -0.000000017942019
12 -0.13776291418231
13 0.041990477507519
14 -0.000000101089521
15 -0.21246936978701
16 0.078031773777837
17 0.000000140245083
18 -0.11307843972208
19 0.013701152018124
20 0.023605512998386
21 -0.009416767319780
22 -0.014188745678606
23 -0.000003439851388
24 -0.000000069582195
25 -0.031158465704864
26 0.072702118272046
27 0.12276540275462
28 0.064127493713240
29 -0.010036823706582
30 -0.004861376329834
31 -0.001173924543767
32 0.072689016906533
33 0.12274119186837
34 0.064117154667578
35 0.010035243928570
36 -0.004863668709454
37 -0.001173172134737
38 -0.024951675901981
39 -0.042443821824732
40 0.12837084464195
41 0.22129764587356
42 -0.000000324311454
43 0.16955095963918
44 -0.083146983775087
45 -0.000000517630867
46 0.25153571665327
47 -0.12384753154406
48 -0.000000522589580
49 0.23540423384529
50 -0.14540132149204
51 0.010241892994967
52 -0.009737407997708
53 -0.000504484997260
54 -0.000000125699718
55 -0.000000011384219
56 0.000821905947314
57 -0.082392123893368
58 -0.15535085319715
59 -0.030103748961983
60 0.000000080262674
61 -0.009984667532187
62 -0.020409713968064
 Sym=      9.1
 Ene=      -0.4449
 Spin= Alpha
 Occup=    2.000000
1 -0.000006790839919
2 -0.000013570727603
3 -0.000006260458338
4 -0.008382290493069
5 0.000001318588571
6 0.000000406610324
7 -0.000000027633449
8 -0.000000051286200
9 0.000000207742553
10 -0.000000052783222
11 -0.10594075841645
12 -0.000000425841108
13 0.000000099179526
14 -0.16203152690592
15 -0.000000677325604
16 0.000000307486944
17 -0.083934181692977
18 0.000000018924873
19 0.000000098717321
20 0.000002367255353
21 -0.000002451297455
22 0.000000084042102
23 0.016567030120335
24 -0.038109827155660
25 -0.000000103621431
26 -0.094892678144430
27 -0.19201466953751
28 -0.083690620930328
29 0.007100603170046
30 -0.008194565406804
31 0.005684062648593
32 0.094899221466796
33 0.19202775104134
34 0.083696977533692
35 0.007102734581221
36 0.008193169742630
37 -0.005684472170451
38 -0.000000094928116
39 -0.000000160478281
40 0.000000402647464
41 0.000001766337519
42 0.24721080420534
43 -0.000000120043504
44 0.000000122555557
45 0.37138008951901
46 -0.000000276445118
47 0.000000186847333
48 0.41427246303456
49 -0.000000947184239
50 0.000000011704539
51 0.000000052137773
52 -0.000000054598630
53 0.000000002460857
54 -0.010878328345839
55 0.003376478093586
56 -0.000000031876092
57 -0.000000260334432
58 -0.000001755178433
59 -0.000000177985204
60 0.026693720424573
61 -0.000000166351906
62 -0.000000253536991
 Sym=     10.1
 Ene=       0.1555
 Spin= Alpha
 Occup=    0.000000
1 0.001800912495205
2 0.048813885829579
3 0.45031639013998
4 -0.000000340979753
5 -0.005574465101828
6 -0.008880287989146
7 0.030136413057722
8 0.047958254278975
9 -0.015986083142354
10 -1.74074507074515
11 -0.000001491161858
12 0.021143552513360
13 -0.060164055278852
14 -0.000000920926830
15 0.015098904072842
16 -0.062374963098992
17 -0.000012300998910
18 0.15956687259219
19 -0.23577662546133
20 0.005193568065590
21 0.002958457725812
22 -0.008152025791402
23 -0.000000591904871
24 0.000000082439369
25 -0.006549586296691
26 0.002715087559665
27 0.013617711230615
28 0.80727351245605
29 0.000402045474179
30 -0.001791734137020
31 -0.006692748776975
32 0.002714744675905
33 0.013621105921972
34 0.80721979138398
35 -0.000401343484790
36 -0.001791193815657
37 -0.006693046993022
38 0.019247201071467
39 0.032103957009858
40 -0.081436489420170
41 -0.33778859934734
42 0.000000325818891
43 0.045825120897962
44 0.032581016812626
45 0.000000257400507
46 0.063793283343798
47 0.025152837086860
48 0.000001929137139
49 0.11746451298876
50 0.21990414191354
51 0.000583975202251
52 -0.002263832988145
53 0.001679857785894
54 -0.000000073848781
55 -0.000000066196754
56 0.001081937920463
57 0.027791348232046
58 -0.10529422946092
59 0.91888393484308
60 0.000000046472345
61 -0.010112592695907
62 -0.009267048592472
 Sym=     11.1
 Ene=       0.1900
 Spin= Alpha
 Occup=    0.000000
1 -0.012867592490821
2 0.078752436994281
3 -1.10874012415351
4 -0.000000517158918
5 -0.008292993007751
6 -0.009120995818795
7 -0.035089953383006
8 -0.056926340655326
9 0.083091547745492
10 1.23761603168434
11 -0.000002073271732
12 0.027518969616542
13 0.008256321011310
14 -0.000001188894625
15 0.013949808479201
16 -0.019007526577065
17 -0.000014996327215
18 0.28625214144972
19 0.17777677973317
20 0.001148718833654
21 0.003219384860934
22 -0.004368103694588
23 -0.000000531802271
24 0.000000213703569
25 -0.006429944125632
26 -0.011715066716395
27 0.076886651784422
28 -0.56304736925293
29 -0.003565891487598
30 -0.001940795182842
31 -0.007894429679429
32 -0.011715888273885
33 0.076889421808972
34 -0.56312800614468
35 0.003566873791751
36 -0.001940530453954
37 -0.007894833677408
38 0.023157236732963
39 0.038236420880294
40 -0.079524372339427
41 -0.57838893139406
42 0.000000578791963
43 0.059219748219870
44 -0.002292981124729
45 0.000000514431779
46 0.083322129601515
47 -0.027186510224177
48 0.000003005418255
49 0.18893116723756
50 0.043622429684473
51 0.000872660021734
52 -0.005552782730785
53 0.004680122709051
54 -0.000000126161953
55 -0.000000098715830
56 0.003305973248522
57 0.037297606414465
58 -0.091066307794046
59 1.23884921492058
60 0.000000223955765
61 -0.000639009213173