[Molden Format]
[Molpro variables]
_NUMVAR=  1115.000000000000    
_AVOGAD= 0.6022140760000000E+24
_BOLTZ= 0.1380649000000000E-22
_CLIGHTSI=  299792458.0000000    
_JOULE= 0.4359744722207100E-17
_JPCAL=  4.184000000000000    
_PLANCK= 0.6626070150000000E-33
_BOHR= 0.5291772109030000E-10
_ECHARG= 0.1602176634000000E-18
_ENULL= 0.8854187812800001E-11
_MU= 0.1660539066600000E-26
_EMASS= 0.9109383701500001E-30
_AMU2AU=  1822.888486217313    
_CLIGHT=  29979245800.00000    
_EV= 0.3674932217565494E-01
_KJOULE= 0.3808798847133432E-03
_KJOULE/MOL= 0.3808798847133432E-03
_CM= 0.4556335252912009E-05
_CM-1= 0.4556335252912009E-05
_DEB2SI= 0.3335640951981520E-29
_KCAL= 0.1593601437640628E-02
_KCAL/MOL= 0.1593601437640628E-02
_KELVIN= 0.3166811563455608E-05
_HERTZ= 0.1519829846057038E-15
_HZ= 0.1519829846057038E-15
_TOA= 0.5291772109030000    
_TOANG= 0.5291772109030000    
_TORAD= 0.1745329251994330E-01
_TOCM=  219474.6313631965    
_TODEBYE=  2.541746473194078    
_TOE= 0.4803204712570263E-09
_TOEV=  27.21138624598803    
_TOHERTZ=  6579683920501656.    
_TOHZ=  6579683920501656.    
_TOK=  315775.0248040668    
_TOKCAL=  627.5094740630558    
_TOKELVIN=  315775.0248040668    
_TOKJ=  2625.499639479825    
_TOKJOULE=  2625.499639479825    
_TOKG= 0.1660539066600000E-26
_ANG=  1.889726124625770    
_ANGSTROM=  1.889726124625770    
_RPAREF=  0.000000000000000    
_RPADISS=  0.000000000000000    
_IGNORE_UNDEF=  2.000000000000000    
_STRICTCHECK=  0.000000000000000    
!SEWARD=  0.000000000000000    
!MULTI=  0.000000000000000    
!DFMULTI=  0.000000000000000    
!NUMHESS=  0.000000000000000    
_SEW_ONEEL=  0.000000000000000    
_CPPDONE=FALSE
_DKROLL_DONE=  0.000000000000000    
_FNUC_DONE=  0.000000000000000    
_FOCKDONE=TRUE
_GRADONE=FALSE
_HESSDONE=TRUE
_INTDONE=TRUE
_SCFDONE=TRUE
_MODUL_BLOCK=FALSE
_MODUL_SLATER=TRUE
_MODUL_MRCC=FALSE
_MODUL_NBO6=FALSE
_MODUL_NECI=FALSE
_MODUL_AIMS=TRUE
_MODUL_HDF5=FALSE
_MODUL_GECCO=FALSE
_ISWINDOWS=FALSE
_MRCC_EXEC=
_FITC_AO_SAVED=FALSE
_FITC_MO_SAVED=FALSE
_LSTYP=SEWARD
_INTYP=INTS
_GEOMTYP=XYZ
_GRADTYP=ALASKA
_DIRECT=FALSE
_DKHO= -1.000000000000000    
_FNUC=  0.000000000000000    
_SYNCM=  0.000000000000000    
_BASIS=6-311G(D,P)
_ZCENTRE=MASS
_ZORIENT=  1.000000000000000    
_NELEC=  34.00000000000000    
!SPIN=  0.000000000000000    
_OPTCONV= 0.8527336109509654E-04
_QSDSTEP=  0.000000000000000    
_QSDIRC=  0.000000000000000    
_PROGRAM=FREQ
_CPUSTEP=  23.62000000000000    
_SYSSTEP=  1.820000000000000    
_WALLSTEP=  25.42000000000000    
!DFSCF=  0.000000000000000    
!SCSGRD=  0.000000000000000    
_NCEN=  12.00000000000000    
_CPUTOT=  242.6700000000000    
_DFTEXFAC=  1.000000000000000    
_DMX=-0.1338719209010522    
_DMY= 0.4861959748253595    
_DMZ=-0.4950241676289124    
_DMX_SCF=-0.1338719209010522    
_DMY_SCF= 0.4861959748253595    
_DMZ_SCF=-0.4950241676289124    
_FREQUENCIES= 0.2020120814192799E-04
_HOMO=  17.10000000000000    
_EHOMO=-0.4316766761549314    
_LUMO=  18.10000000000000    
_ELUMO= 0.1537420837422167    
_ENERGY= -193.1697088766885    
_ENERGY_METHOD=HF
_ENERGY_BASIS=6-311G(D,P)
_GEOMETRY_METHOD=HF
_GEOMETRY_BASIS=6-311G(D,P)
_ENUC=  131.0318212229068    
_GRADENERG= -193.1697088766892    
_GRADEXFAC=  9999.000000000000    
_GRADMETHOD=  1.000000000000000    
_NMRMETHOD=  0.000000000000000    
_NMRMAGNET=  0.000000000000000    
_VIRIAL= 0.1690276073672479E-06
!GRID_FREEZE= -1.000000000000000    
!NEESE_INDEX=  0.000000000000000    
_ITERATIONS=  10.00000000000000    
_LASTNELEC=  34.00000000000000    
_LASTSPIN=  0.000000000000000    
_LASTSYM=  1.000000000000000    
_MSNSTATES=  0.000000000000000    
_RS2PHASE=  0.000000000000000    
_NPROC_MPP=  6.000000000000000    
_NPROC_SMP=  6.000000000000000    
_NUMSTEP=  0.000000000000000    
_OPTCONVMX= 0.5059728689123884E-04
_OPTCONVRMS= 0.1556871447535593E-04
_OPTGRAD= 0.3486206247152940E-06
_OPTGRADMX= 0.1324887691234848E-06
_OPTGRADRMS= 0.6364912672270318E-07
!GMAXLAST= 0.1324887691234848E-06
!DMAXLAST= 0.5059728689123884E-04
!DELAST= 0.5996980689815246E-11
_OPTSTEP= -100.0000000000000    
_ORBITAL=  2100.200000000000    
_PI=  3.141592653589793    
_SEIG_MIN= 0.2374843219145592E-02
_SEWPROP=TRUE
_STATUS=  1.000000000000000    
_SYSTOT=  19.63000000000000    
_VERSION=  2024002.000000000    
_WALLTOT=  262.3600000000000    
_ZPE= 0.1155464783389815    
_DATE=09-Jan-25
_LASTORB=0
_OUTPUT=/home/lme/graph_IC/tests/propanol_molpro.out
_PGROUP=C1
_TIME=11:42:35
_LIBMOL=/usr/local/molpro/molpro_2024.2.2_sockets/lib/
_VIGRDC=  0.000000000000000    
!VIBCNT=  0.000000000000000    
!SURFREC=  0.000000000000000    
!XSURFREC=  0.000000000000000    
!XPOLYREC=  0.000000000000000    
!ROTREC=  0.000000000000000    
!POLYREC=  0.000000000000000    
!DIPREC=  0.000000000000000    
!DIP4DREC=  0.000000000000000    
!DIPROT=  0.000000000000000    
!DIP4DROT=  0.000000000000000    
!PTREC=  0.000000000000000    
!PT4DREC=  0.000000000000000    
!VSCFREC=  0.000000000000000    
!VCIREC=  0.000000000000000    
!PVCIREC=  0.000000000000000    
!VMP2REC=  0.000000000000000    
!VMCSCFREC=  0.000000000000000    
!VMRCIREC=  0.000000000000000    
!VIBSTATEREC=  0.000000000000000    
!VIBSTATECNT=  0.000000000000000    
!VIBINFO=  0.000000000000000    
!GAREC=  0.000000000000000    
!SCFORB=  21002.00000000000    
!DEFCORE=  4.000000000000000    
!SCORE=  0.000000000000000    
!NEWMOL=  0.000000000000000    
!NEWSYM=  0.000000000000000    
_SLFILES=slscratch
_NGSSTO=  9.000000000000000    
_SIN=SIN
_COS=COS
_TAN=TAN
_ACOS=ACOS
_ASIN=ASIN
_ATAN=ATAN
_COSH=COSH
_SINH=SINH
_TANH=TANH
_ABS=ABS
_MOD=MOD
_ERF=ERF
_REFC=REFC
_ERFC=ERFC
_HYPOT=HYPOT
_J0=J0
_J1=J1
_JN=JN
_GAMMA=GAMMA
_LGAMMA=LGAMMA
_Y0=Y0
_Y1=Y1
_YN=YN
_EXP=EXP
_LOG=LOG
_LOG10=LOG10
_SQRT=SQRT
_INT=INT
_NINT=NINT
_MAX=MAX
_MIN=MIN
_COSMO=  0.000000000000000    
_COSMOIT=  0.000000000000000    
_COSMOES=  0.000000000000000    
_COSMOEDS=  0.000000000000000    
_COSMOEC=  0.000000000000000    
_COSMOEDCORR=  0.000000000000000    
_FEPSI=  1.000000000000000    
_SL_IsMM=  0.000000000000000    
_SL_NSYM=  1.000000000000000    
_SL_System_BitSw=  0.000000000000000    
_SL_Unique_atoms=  0.000000000000000    
_SL_GRAD=  0.000000000000000    
_SL_MAXUPD_Hess=  5.000000000000000    
_SL_N_PRINT_COD=  5.000000000000000    
_SL_PRINT_CODES=  0.000000000000000    
_SL_BasType=  0.000000000000000    
_SL_Energy_Pred=  0.000000000000000    
_SL_New_Coords=  0.000000000000000    
_SL_Total_Nuclea=  0.000000000000000    
_SL_Highest_Mltp=  0.000000000000000    
_SL_Ref_Geom=  0.000000000000000    
_SL_Symmetry_ope=  1.000000000000000    
_SL_agrad=  0.000000000000000    
_SL_GrdMax=  0.000000000000000    
_SL_GrdNorm=  0.000000000000000    
_SL_GrdRMS=  0.000000000000000    
_SL_Hss_Q=  0.000000000000000    
_SL_Hss_X=  0.000000000000000    
_SL_BMxOld=  0.000000000000000    
_SL_KtB=  0.000000000000000    
_SL_TROld=  0.000000000000000    
_SL_No_of_Intern=  0.000000000000000    
_SL_Hess=  0.000000000000000    
_SL_K=  0.000000000000000    
!LATTICE= -1.000000000000000    
!NEWLATTICE=  0.000000000000000    
!LATGRAD_VAR=FALSE
!SEW_LATTICE=  1.000000000000000    
!AIC_ONEEL=  0.000000000000000    
!LOCAL=  0.000000000000000    
!SAVEDOM= -1.000000000000000    
!RESTDOM= -1.000000000000000    
!SAVEDOM_HF= -1.000000000000000    
!RESTDOM_HF= -1.000000000000000    
!HESSREC=  5300.200000000000    
!FREQREC=  5400.200000000000    
!NMODREC=  5450.200000000000    
!GTASKS=  0.000000000000000    
!HTASKS=  0.000000000000000    
!SAVEDOM_EOM= -1.000000000000000    
!RESTDOM_EOM= -1.000000000000000    
!GRADSTATE= -1.000000000000000    
!DEBUG=  0.000000000000000    
!CFIT_CPHF=  0.000000000000000    
!RDOMAUX_CPHF=  0.000000000000000    
!THRAO_CPHF= 0.1000000000000000E-11
!THRMO_CPHF= 0.1000000000000000E-11
!THROV_CPHF= 0.1000000000000000E-13
!THRSW_CPHF= 0.1000000000000000E-11
!THRPROD_CPHF= 0.1000000000000000E-11
!THRAOPR_CPHF= 0.1000000000000000E-11
!CFIT_SCFGRD=  0.000000000000000    
!RDOMAUX_SCFGRD=  0.000000000000000    
!THRAO_SCFGRD= 0.1000000000000000E-11
!THRMO_SCFGRD= 0.1000000000000000E-11
!THROV_SCFGRD= 0.1000000000000000E-13
!THRSW_SCFGRD= 0.1000000000000000E-11
!THRPROD_SCFGRD= 0.1000000000000000E-11
!THRAOPR_SCFGRD= 0.1000000000000000E-11
!LOCFIT_SCF=  0.000000000000000    
!LOCFIT_MP2=  0.000000000000000    
_RIDOM=  0.000000000000000    
!CC2_METHOD=  0.000000000000000    
_BASIS2006=FALSE
_SVDDEL= -1.000000000000000    
_SVDDELA= -1.000000000000000    
_SVDDELP= -1.000000000000000    
_SVDDELF= -1.000000000000000    
_SVDDELS= -1.000000000000000    
_SVDDEL_ABS= -1.000000000000000    
_SVDDELA_ABS= -1.000000000000000    
_SVDDELP_ABS= -1.000000000000000    
_SVDDELF_ABS= -1.000000000000000    
_SVDDELS_ABS= -1.000000000000000    
_MAXBASIS=  0.000000000000000    
!OPT_CONICAL=  0.000000000000000    
!CLEARSP_JGRID=  0.000000000000000    
_GRDHYBR=  0.000000000000000    
_STATEGRAD=  1.000000000000000    
_4EXT_NDISKS=  1.000000000000000    
!EMBEDFLAG=  1.000000000000000    
!EMBED=FALSE
!EMBED_F12=FALSE
!EMBEDNUC=  0.000000000000000    
_EMBEDENERGY=  0.000000000000000    
!EMBED_DFC=FALSE
!NUM_VOIDS=  0.000000000000000    
_IBODY=  0.000000000000000    
_EMBE_CORR=  0.000000000000000    
!EMBED_PROJ=FALSE
!EMB_PROJ_ZMU=  1000000.000000000    
!CORRECTION_HF=  0.000000000000000    
!EMBED_AORB=  0.000000000000000    
!EMBED_NACORR=  0.000000000000000    
!EMBED_MP2=FALSE
!EMBED_TRUNC_PERTURBATION=FALSE
!EMBED_FROZEN=  0.000000000000000    
!EMBED_ACTIVE=  0.000000000000000    
_CHANGE_BASIS=FALSE
_RESTORE_BASIS=FALSE
_FIX_EMBED_GUESS=FALSE
_EMBED_SCF=FALSE
_NEOBAS=FALSE
_NEOOVE=FALSE
_PRINEO=FALSE
_HUZINAGA_T=FALSE
_HUZINAGA_F=FALSE
_HUZINAGA=FALSE
_HUZINAGA_CORRECT=FALSE
!FASTLATGRAD=  1.000000000000000    
!FASTVLAMBDA= -1.000000000000000    
!IFORCE= -1.000000000000000    
!USESYM= -1.000000000000000    
_SINDEX=  0.000000000000000    
_AVDOM_OSV=  0.000000000000000    
_AVDOM_PNO=  0.000000000000000    
_AVDOM_PNOCC=  0.000000000000000    
_AVDOM_TNO=  0.000000000000000    
_AVDOM_TNOIT=  0.000000000000000    
_AVDOM_PAO=  0.000000000000000    
_AVDOM_LMO=  0.000000000000000    
_CC2OSV_FLAG=  0.000000000000000    
_EOMCCSD_CONV=FALSE
_TMADC2_FLAG=FALSE
_PROPADC2_FLAG=FALSE
_LEN_VirQ=  0.000000000000000    
_GRDCC2LR_FLAG=FALSE
_GRDADC2_FLAG=FALSE
_RO_VGLOBAL=  0.000000000000000    
_OPT=FALSE
_FREQ=FALSE
_HESS=FALSE
_CMRCC_callName=EMPTY
_CMRCC_callCount=  0.000000000000000    
_GECCO_CIROOT=  1.000000000000000    
_SYM_CATION=  1.000000000000000    
_MON_A=FALSE
_MON_B=FALSE
_MAXGEOM=  100.0000000000000    
!MAXGEOM=  100.0000000000000    
_NCORE=  0.000000000000000    
_NLARGECORE=  0.000000000000000    
GX1= 0.1389635803491815    
GY1= 0.5334062036857169E-02
GZ1= -1.963552273036577    
GX2=-0.5168872850639052    
GY2=-0.2025766611529572E-01
GZ2=-0.5844166977569056    
GX3= 0.7302007505437337    
GY3= 0.9066907196251992    
GZ3= -2.103982280973932    
GX4=-0.6072170758775323    
GY4=-0.2562965849145236E-01
GZ4= -2.750887766068617    
GX5= 0.7983459194120281    
GY5=-0.8478507545007492    
GZ5= -2.099723810004474    
GX6= -1.194554737923295    
GY6= 0.8279494962810912    
GZ6=-0.4877707308992728    
GX7= 0.4971638092764881    
GY7= 0.2370132525185801E-01
GZ7= 0.5500265901673139    
GX8= -1.120878938371960    
GY8=-0.9164074987885703    
GZ8=-0.4712805579381736    
GX9=  1.109041957981135    
GY9= 0.9225440178546311    
GZ9= 0.4692399162473987    
GX10=  1.165034661906073    
GY10=-0.8274889817476319    
GZ10= 0.4848056837285715    
GX11=-0.1032909441820725    
GY11=-0.5282615452484637E-01
GZ11=  1.815126829528762    
GX12=-0.6604422608204304    
GY12= 0.6940670260413658    
GZ12=  1.941385362509728    
C1X1= 0.2626031081573805    
C1Y1= 0.1007991638142354E-01
C1Z1= -3.710576027425533    
C2X2=-0.9767754060721494    
C2Y2=-0.3828144088202055E-01
C2Z2= -1.104387501418747    
H1X3=  1.379879434523839    
H1Y3=  1.713397139831478    
H1Z3= -3.975950282106158    
H2X4= -1.147473971604641    
H2Y4=-0.4843303521653422E-01
H2Z4= -5.198424477453290    
H3X5=  1.508655140401289    
H3Y5= -1.602205720563736    
H3Z5= -3.967902938264212    
H4X6= -2.257381295549141    
H4Y6=  1.564597792993125    
H4Z6=-0.9217530930081621    
C3X7= 0.9395034386082434    
C3Y7= 0.4478901351668856E-01
C3Z7=  1.039399616678005    
H5X8= -2.118154212384291    
H5Y8= -1.731759191263720    
H5Z8=-0.8905911823639756    
H6X9=  2.095785561303067    
H6Y9=  1.743355531657119    
H6Z9= 0.8867349284499177    
H7X10=  2.201596436698459    
H7Y10= -1.563727546648477    
H7Z10= 0.9161499659089403    
OX11=-0.1951915956581247    
OY11=-0.9982696426912002E-01
OZ11=  3.430092589269649    
H8X12= -1.248054994079274    
H8Y12=  1.311596591351684    
H8Z12=  3.668686637500704    
[Atoms] Angs
C     1    6         0.1389635803        0.0053340620       -1.9635522730
C     2    6        -0.5168872851       -0.0202576661       -0.5844166978
H     3    1         0.7302007505        0.9066907196       -2.1039822810
H     4    1        -0.6072170759       -0.0256296585       -2.7508877661
H     5    1         0.7983459194       -0.8478507545       -2.0997238100
H     6    1        -1.1945547379        0.8279494963       -0.4877707309
C     7    6         0.4971638093        0.0237013253        0.5500265902
H     8    1        -1.1208789384       -0.9164074988       -0.4712805579
H     9    1         1.1090419580        0.9225440179        0.4692399162
H    10    1         1.1650346619       -0.8274889817        0.4848056837
O    11    8        -0.1032909442       -0.0528261545        1.8151268295
H    12    1        -0.6604422608        0.6940670260        1.9413853625
[GTO]
   1 0
 s    6  1.00
  0.4563240000D+04  0.1966650249D-02
  0.6820240000D+03  0.1523060193D-01
  0.1549730000D+03  0.7612690966D-01
  0.4445530000D+02  0.2608010331D+00
  0.1302900000D+02  0.6164620782D+00
  0.1827730000D+01  0.2210060280D+00
 s    3  1.00
  0.2096420000D+02  0.1146600807D+00
  0.4803310000D+01  0.9199996477D+00
  0.1459330000D+01 -0.3030682134D-02
 s    1  1.00
  0.4834560000D+00  0.1000000000D+01
 s    1  1.00
  0.1455850000D+00  0.1000000000D+01
 p    3  1.00
  0.2096420000D+02  0.4024869267D-01
  0.4803310000D+01  0.2375939567D+00
  0.1459330000D+01  0.8158538515D+00
 p    1  1.00
  0.4834560000D+00  0.1000000000D+01
 p    1  1.00
  0.1455850000D+00  0.1000000000D+01
 d    1  1.00
  0.6260000000D+00  0.1000000000D+01
  
   2 0
 s    6  1.00
  0.4563240000D+04  0.1966650249D-02
  0.6820240000D+03  0.1523060193D-01
  0.1549730000D+03  0.7612690966D-01
  0.4445530000D+02  0.2608010331D+00
  0.1302900000D+02  0.6164620782D+00
  0.1827730000D+01  0.2210060280D+00
 s    3  1.00
  0.2096420000D+02  0.1146600807D+00
  0.4803310000D+01  0.9199996477D+00
  0.1459330000D+01 -0.3030682134D-02
 s    1  1.00
  0.4834560000D+00  0.1000000000D+01
 s    1  1.00
  0.1455850000D+00  0.1000000000D+01
 p    3  1.00
  0.2096420000D+02  0.4024869267D-01
  0.4803310000D+01  0.2375939567D+00
  0.1459330000D+01  0.8158538515D+00
 p    1  1.00
  0.4834560000D+00  0.1000000000D+01
 p    1  1.00
  0.1455850000D+00  0.1000000000D+01
 d    1  1.00
  0.6260000000D+00  0.1000000000D+01
  
   3 0
 s    3  1.00
  0.3386500000D+02  0.2549381454D-01
  0.5094790000D+01  0.1903731086D+00
  0.1158790000D+01  0.8521614860D+00
 s    1  1.00
  0.3258400000D+00  0.1000000000D+01
 s    1  1.00
  0.1027410000D+00  0.1000000000D+01
 p    1  1.00
  0.7500000000D+00  0.1000000000D+01
  
   4 0
 s    3  1.00
  0.3386500000D+02  0.2549381454D-01
  0.5094790000D+01  0.1903731086D+00
  0.1158790000D+01  0.8521614860D+00
 s    1  1.00
  0.3258400000D+00  0.1000000000D+01
 s    1  1.00
  0.1027410000D+00  0.1000000000D+01
 p    1  1.00
  0.7500000000D+00  0.1000000000D+01
  
   5 0
 s    3  1.00
  0.3386500000D+02  0.2549381454D-01
  0.5094790000D+01  0.1903731086D+00
  0.1158790000D+01  0.8521614860D+00
 s    1  1.00
  0.3258400000D+00  0.1000000000D+01
 s    1  1.00
  0.1027410000D+00  0.1000000000D+01
 p    1  1.00
  0.7500000000D+00  0.1000000000D+01
  
   6 0
 s    3  1.00
  0.3386500000D+02  0.2549381454D-01
  0.5094790000D+01  0.1903731086D+00
  0.1158790000D+01  0.8521614860D+00
 s    1  1.00
  0.3258400000D+00  0.1000000000D+01
 s    1  1.00
  0.1027410000D+00  0.1000000000D+01
 p    1  1.00
  0.7500000000D+00  0.1000000000D+01
  
   7 0
 s    6  1.00
  0.4563240000D+04  0.1966650249D-02
  0.6820240000D+03  0.1523060193D-01
  0.1549730000D+03  0.7612690966D-01
  0.4445530000D+02  0.2608010331D+00
  0.1302900000D+02  0.6164620782D+00
  0.1827730000D+01  0.2210060280D+00
 s    3  1.00
  0.2096420000D+02  0.1146600807D+00
  0.4803310000D+01  0.9199996477D+00
  0.1459330000D+01 -0.3030682134D-02
 s    1  1.00
  0.4834560000D+00  0.1000000000D+01
 s    1  1.00
  0.1455850000D+00  0.1000000000D+01
 p    3  1.00
  0.2096420000D+02  0.4024869267D-01
  0.4803310000D+01  0.2375939567D+00
  0.1459330000D+01  0.8158538515D+00
 p    1  1.00
  0.4834560000D+00  0.1000000000D+01
 p    1  1.00
  0.1455850000D+00  0.1000000000D+01
 d    1  1.00
  0.6260000000D+00  0.1000000000D+01
  
   8 0
 s    3  1.00
  0.3386500000D+02  0.2549381454D-01
  0.5094790000D+01  0.1903731086D+00
  0.1158790000D+01  0.8521614860D+00
 s    1  1.00
  0.3258400000D+00  0.1000000000D+01
 s    1  1.00
  0.1027410000D+00  0.1000000000D+01
 p    1  1.00
  0.7500000000D+00  0.1000000000D+01
  
   9 0
 s    3  1.00
  0.3386500000D+02  0.2549381454D-01
  0.5094790000D+01  0.1903731086D+00
  0.1158790000D+01  0.8521614860D+00
 s    1  1.00
  0.3258400000D+00  0.1000000000D+01
 s    1  1.00
  0.1027410000D+00  0.1000000000D+01
 p    1  1.00
  0.7500000000D+00  0.1000000000D+01
  
  10 0
 s    3  1.00
  0.3386500000D+02  0.2549381454D-01
  0.5094790000D+01  0.1903731086D+00
  0.1158790000D+01  0.8521614860D+00
 s    1  1.00
  0.3258400000D+00  0.1000000000D+01
 s    1  1.00
  0.1027410000D+00  0.1000000000D+01
 p    1  1.00
  0.7500000000D+00  0.1000000000D+01
  
  11 0
 s    6  1.00
  0.8588500000D+04  0.1895150083D-02
  0.1297230000D+04  0.1438590063D-01
  0.2992960000D+03  0.7073200310D-01
  0.8737710000D+02  0.2400010105D+00
  0.2567890000D+02  0.5947970261D+00
  0.3740040000D+01  0.2808020123D+00
 s    3  1.00
  0.4211750000D+02  0.1138890124D+00
  0.9628370000D+01  0.9208111006D+00
  0.2853320000D+01 -0.3274470358D-02
 s    1  1.00
  0.9056610000D+00  0.1000000000D+01
 s    1  1.00
  0.2556110000D+00  0.1000000000D+01
 p    3  1.00
  0.4211750000D+02  0.3651139738D-01
  0.9628370000D+01  0.2371529830D+00
  0.2853320000D+01  0.8197019412D+00
 p    1  1.00
  0.9056610000D+00  0.1000000000D+01
 p    1  1.00
  0.2556110000D+00  0.1000000000D+01
 d    1  1.00
  0.1292000000D+01  0.1000000000D+01
  
  12 0
 s    3  1.00
  0.3386500000D+02  0.2549381454D-01
  0.5094790000D+01  0.1903731086D+00
  0.1158790000D+01  0.8521614860D+00
 s    1  1.00
  0.3258400000D+00  0.1000000000D+01
 s    1  1.00
  0.1027410000D+00  0.1000000000D+01
 p    1  1.00
  0.7500000000D+00  0.1000000000D+01


[MO]
 Sym=      1.1
 Ene=     -20.5405
 Spin= Alpha
 Occup=    2.000000
1 -0.000000259756969
2 0.000000389087808
3 -0.000026219822546
4 0.000199035295756
5 -0.000000171204156
6 0.000001842229653
7 0.000002535002347
8 0.000006749568050
9 -0.000006716654924
10 -0.000008703526618
11 0.000066121090556
12 -0.000035111473204
13 0.000155247060773
14 -0.000004312917526
15 0.000002417946790
16 0.000001894970736
17 0.000001636506425
18 -0.000009055771261
19 -0.000004318789938
20 0.000001571738944
21 -0.000000864194880
22 0.000019894658288
23 -0.000207154938716
24 -0.000002756865551
25 -0.000000886465145
26 -0.000001849798930
27 -0.000002802197380
28 0.000002655825211
29 -0.000008001303766
30 -0.000088866908023
31 0.000132628856647
32 -0.000017719009843
33 0.000013043570243
34 0.000008783353460
35 -0.000021826923703
36 0.000004267404796
37 0.000007019112011
38 0.000006660506270
39 0.000007864209594
40 -0.000062954385732
41 0.000028960617125
42 -0.000003008241095
43 0.000010536450501
44 -0.000006965344003
45 -0.000000993689596
46 0.000018392261899
47 0.000038154490903
48 0.000004908420867
49 0.000003557960342
50 -0.000002694001604
51 0.000009256445399
52 -0.000079265991633
53 0.000000562426638
54 0.000000601075633
55 -0.000012685464089
56 -0.000006600475142
57 0.000008316802719
58 -0.000050766617079
59 -0.000070441048383
60 -0.000013164366245
61 0.000009786468514
62 -0.000004882842569
63 -0.000002769181941
64 -0.000030197548303
65 0.000077644663255
66 0.000685824285764
67 -0.000009493129281
68 -0.000014399842347
69 0.000031772178921
70 -0.000124611019229
71 0.000027954968237
72 0.000215981875548
73 -0.000143158229349
74 -0.000237822793272
75 0.000342896565803
76 -0.000019827977066
77 -0.000078634083503
78 0.000098462060569
79 -0.000002280631025
80 -0.000099988358157
81 0.000020498238561
82 0.000002941646691
83 0.000005744856870
84 0.000025388908620
85 -0.000005331330483
86 -0.000007857544519
87 -0.000011923358842
88 -0.000000130313277
89 0.000012074930330
90 0.000005993304445
91 -0.000004433958665
92 -0.000007937866450
93 -0.000040250652931
94 0.000026801433582
95 -0.000135727614884
96 -0.000066989008107
97 0.000001428831919
98 0.000020105628012
99 -0.000016203249044
100 0.55144171096995
101 0.47166164211493
102 0.005681531663583
103 -0.000975218420981
104 -0.000272678302261
105 0.001290456947685
106 -0.001117054025234
107 0.000110565196022
108 -0.000485574596459
109 0.000394990121430
110 -0.000181459214598
111 0.000153915647720
112 0.000189889232120
113 0.000039073175124
114 0.000030235547308
115 -0.000069308722432
116 0.000083256176614
117 0.000126476984004
118 0.000007093123356
119 0.000218756803390
120 0.000044821509978
121 0.000069744394175
122 0.000056543918252
123 -0.000036588402527
124 -0.000064795782777
 Sym=      2.1
 Ene=     -11.2670
 Spin= Alpha
 Occup=    2.000000
1 -0.000031040067549
2 -0.000022146609127
3 -0.000061221616752
4 0.000261068175811
5 -0.000003211093294
6 -0.000000447812838
7 -0.000006183823005
8 0.000011552815607
9 0.000002130225994
10 0.000001807023017
11 0.000104353360328
12 0.000018760757837
13 0.000159634572671
14 -0.000013958410788
15 -0.000001518482678
16 0.000015476893466
17 -0.000000632611878
18 -0.000000627027872
19 0.000000688207587
20 0.003711773252698
21 0.003020829999677
22 0.000266302131298
23 0.000466428170590
24 0.000103908496294
25 0.000005136463464
26 0.000089038104417
27 0.000153540040243
28 0.000006383671739
29 0.000231999292021
30 0.000182976985988
31 -0.000031553564073
32 0.000279144566429
33 -0.000009039919995
34 -0.000054416341791
35 0.000063456261786
36 0.000004651404706
37 0.000102054169805
38 0.000003108846312
39 0.000006540745515
40 -0.000093537442919
41 -0.000037666871237
42 -0.000000142330990
43 0.000012973447147
44 -0.000015353001865
45 -0.000003944324795
46 0.000047085092944
47 0.000074604228636
48 0.000000638480166
49 -0.000001369669428
50 0.000013070003539
51 0.000005601032190
52 -0.000084890219446
53 -0.000030854379831
54 -0.000000514330736
55 -0.000012180908970
56 -0.000015910747066
57 -0.000005584633723
58 0.000018245217470
59 0.000027045189392
60 0.000017144687129
61 -0.000007373027562
62 0.000003344671455
63 0.56345220857455
64 0.46654939675519
65 0.004128973843112
66 -0.002016095888276
67 -0.000435904750414
68 0.000016706836301
69 0.000896861817576
70 0.000353436468689
71 -0.000010458390442
72 -0.000654159430500
73 0.000061950297425
74 0.000066024388583
75 0.000359347527225
76 0.000041029507731
77 0.000169029193758
78 -0.000210058701488
79 -0.000037681188554
80 0.000133166986500
81 0.000014390326684
82 -0.000004160359732
83 -0.000004166206269
84 0.000008260794410
85 0.000013831250196
86 0.000007167127959
87 0.000005455302308
88 0.000324642950711
89 0.000255350343537
90 0.000262229517769
91 -0.000035578921981
92 -0.000010162786502
93 0.000017670656912
94 0.000321726313996
95 0.000256908407050
96 0.000300172629774
97 -0.000029783637144
98 -0.000004700324641
99 0.000016171741548
100 -0.000072582397632
101 -0.000128682904161
102 0.000281637737486
103 0.000443375616103
104 0.000042196797338
105 0.000013327442089
106 -0.000101172114939
107 0.000251356565090
108 0.000017667848078
109 -0.000491322738353
110 0.000060035368992
111 -0.000005683732342
112 -0.000210515526461
113 -0.000058042038078
114 -0.000118152861181
115 0.000176194899259
116 0.000028889807508
117 -0.000139746589384
118 -0.000035049483224
119 -0.000018641977173
120 0.000056322899832
121 -0.000025518113694
122 0.000037791529109
123 -0.000038013049382
124 -0.000011163064338
 Sym=      3.1
 Ene=     -11.2197
 Spin= Alpha
 Occup=    2.000000
1 0.053219067814884
2 0.044013858186996
3 0.000635428068092
4 0.000771303395064
5 -0.000050904902338
6 -0.000001949744287
7 0.000104503808174
8 -0.000157579037487
9 -0.000004292104264
10 0.000332364345460
11 -0.000163016941114
12 -0.000014098617247
13 0.000319726908270
14 -0.000038061321124
15 -0.000080175820791
16 0.000118237141915
17 0.000000405863764
18 -0.000090678999975
19 -0.000001703874035
20 0.56081908120233
21 0.46442697241903
22 0.004530533862669
23 -0.002664751524362
24 -0.000002680446957
25 0.000071613549317
26 -0.000139116976614
27 -0.000028939420492
28 -0.000059378598411
29 0.000102817652425
30 -0.000368814655950
31 0.000004636951734
32 -0.000025436725969
33 0.000005394029354
34 0.000069379308962
35 -0.000074773338317
36 0.000016791068610
37 0.000001534237031
38 -0.000005964345823
39 0.000034031299725
40 -0.000009859874389
41 0.000025045369641
42 -0.000013419566806
43 -0.000015294717023
44 0.000011832169072
45 0.000042576612422
46 -0.000061302106405
47 -0.000021491003410
48 0.000005576248714
49 0.000000830592569
50 -0.000002137983623
51 0.000034388182944
52 -0.000013609503009
53 0.000022450976639
54 -0.000014400538817
55 0.000013846059017
56 0.000013676887726
57 0.000334937704937
58 0.000337135779376
59 0.000216466836173
60 0.000050402120983
61 -0.000023502567777
62 -0.000011560849147
63 -0.003790697013119
64 -0.003194334712372
65 0.000183344147950
66 0.000954177940839
67 -0.000097376400384
68 -0.000003889533750
69 -0.000097174050043
70 -0.000192752248250
71 -0.000008037000745
72 -0.000237331649698
73 -0.000303833134292
74 -0.000018954590848
75 -0.000281558445063
76 0.000006971344559
77 -0.000064535045666
78 0.000057563701107
79 0.000000150161063
80 0.000112908346757
81 -0.000000739703756
82 0.000329019618020
83 0.000301000364387
84 0.000235471357097
85 0.000031928064862
86 0.000010394933645
87 -0.000015511003474
88 -0.000006174845512
89 -0.000040037002127
90 0.000015639888051
91 -0.000008575523847
92 -0.000006883504468
93 -0.000008426068088
94 -0.000008163749212
95 -0.000034733057874
96 0.000011913081060
97 -0.000011560440396
98 0.000006037089231
99 -0.000010217952149
100 0.000002447023838
101 0.000003374670937
102 -0.000005488450840
103 -0.000059163835059
104 0.000002794073403
105 0.000001592561868
106 0.000010302150125
107 0.000009266345389
108 -0.000002249730403
109 0.000008371867566
110 -0.000005454983279
111 0.000033088511103
112 0.000051870132595
113 -0.000000808027925
114 -0.000000046010253
115 0.000000854038177
116 -0.000002175936521
117 0.000000546205133
118 -0.000000313409932
119 -0.000001630964539
120 -0.000038183931946
121 -0.000025382052150
122 -0.000009487392626
123 -0.000000701727683
124 0.000004706622001
 Sym=      4.1
 Ene=     -11.2164
 Spin= Alpha
 Occup=    2.000000
1 0.56082068368516
2 0.46445767678878
3 0.004444087095543
4 -0.001836956964510
5 0.000009224806043
6 0.000008790847455
7 0.000023095960627
8 0.000049850290199
9 -0.000005393907865
10 -0.000140966291205
11 0.000026788505240
12 0.000003040740450
13 -0.000285016135732
14 0.000023703816218
15 0.000041511762741
16 -0.000065215578959
17 -0.000002590066535
18 0.000081456569024
19 0.000002720404591
20 -0.053312275521022
21 -0.044209159541686
22 -0.000180825211150
23 0.000679346218107
24 0.000058540641848
25 -0.000004191269649
26 -0.000099146623815
27 0.000139515649183
28 0.000010259917863
29 -0.000317085624745
30 0.000103247389340
31 0.000009812409891
32 -0.000296738028081
33 -0.000037811573272
34 -0.000076742084520
35 0.000114553657792
36 0.000000808239955
37 -0.000106889255015
38 -0.000004044560833
39 0.000346226720353
40 0.000229872051435
41 0.000233519671481
42 -0.000011340298708
43 -0.000014225861018
44 0.000029713598685
45 0.000352346575956
46 0.000137267375140
47 0.000196521230273
48 -0.000015996686495
49 -0.000000337543980
50 0.000015434174775
51 0.000345191083768
52 0.000226706456331
53 0.000234011426155
54 -0.000010533260014
55 0.000011686699218
56 0.000028576686238
57 -0.000032873117164
58 -0.000032184255676
59 -0.000022793951067
60 0.000008650281353
61 -0.000009278593065
62 -0.000003483392306
63 0.000393676109966
64 0.000335084401259
65 -0.000080271372455
66 0.000183869167235
67 0.000010746983819
68 0.000000426676618
69 0.000015414681471
70 0.000032933310679
71 -0.000000228432629
72 0.000021407080335
73 0.000089696589330
74 -0.000004656052360
75 -0.000163246674384
76 -0.000000503234721
77 0.000008068808656
78 -0.000007565573935
79 -0.000001816003213
80 0.000000902255471
81 0.000001287009055
82 -0.000032268848759
83 -0.000028288474350
84 -0.000011526541878
85 0.000009264527480
86 0.000010830399691
87 -0.000002968600672
88 0.000009450025362
89 -0.000097812210123
90 -0.000025685237451
91 0.000005600283940
92 0.000018319230393
93 0.000016239223875
94 0.000010889663121
95 -0.000110996817552
96 -0.000021457033352
97 0.000009032048730
98 -0.000019412508485
99 0.000017166883878
100 -0.000000611971221
101 0.000000613914172
102 -0.000018288218660
103 0.000107063718498
104 0.000000210232588
105 -0.000001407820982
106 -0.000003183835672
107 -0.000005414333718
108 0.000005560091785
109 -0.000002051588061
110 0.000006936724661
111 0.000000739053455
112 -0.000041876070699
113 -0.000001493333105
114 -0.000001213316566
115 0.000002706649671
116 -0.000001743608955
117 -0.000001108974490
118 0.000000244770313
119 -0.000000501009815
120 -0.000014705075243
121 0.000036661098933
122 -0.000004083035997
123 0.000004429289990
124 -0.000002012683869
 Sym=      5.1
 Ene=      -1.3630
 Spin= Alpha
 Occup=    2.000000