
 Working directory              : /tmp/lme/molpro.vLMGM1V5yz/
 Global scratch directory       : /tmp/lme/molpro.vLMGM1V5yz/
 Wavefunction directory         : /home/lme/wfu/
 Main file repository           : /tmp/lme/molpro.vLMGM1V5yz/

 id        : liedlgroup

 Nodes     nprocs
 sv1-c724     6
 GA implementation: MPI file
 GA implementation (serial work in mppx): MPI file

 Using customized tuning parameters: mindgm=1; mindgv=20; mindgc=4; mindgr=1; noblas=0; minvec=7
 default implementation of scratch files=sf  


 Variables initialized (1045), CPU time= 0.01 sec
 memory, 500, m                                                                  ! Memory Requirements
 gthresh, optgrad=1.d-7,twoint=1.d-14,prefac=1.d-16                            ! Guntram Rezept um numerischen Schmutz zu entfernen
 orient,mass
 geometry={
 C1,         -3.59438,        1.26763,       -0.04227
 C2,         -2.06872,        1.25426,       -0.03552
 H1,         -3.98151,        1.62418,        0.93606
 H2,         -3.97482,        0.24008,       -0.22216
 H3,         -3.97123,        1.93265,       -0.84842
 H4,         -1.71642,        0.56796,        0.76479
 C3,         -1.50339,        2.65474,        0.20980
 H5,         -1.70438,        0.87618,       -1.01534
 H6,         -1.86455,        3.06534,        1.18074
 H7,         -1.84981,        3.34467,       -0.58914
  O,         -0.10245,        2.62381,        0.18791
 H8,          0.18832,        2.26681,        1.06760
 }
 
 mass, iso
 basis=6-311g(d,p)
 
 {hf
 start,atden}
 
 optg
 {frequencies, symm=auto, print=0,analytical}
 put,molden,propanol.molden
 
 Commands initialized (836), CPU time= 0.01 sec, 720 directives.
 Default parameters read. Elapsed time= 0.12 sec

 Checking input...
 Passed
1


                                         ***  PROGRAM SYSTEM MOLPRO  ***
                                       Copyright, TTI GmbH Stuttgart, 2015
                                    Version 2024.2 linked Tue Oct  8 23:14:51 2024


 **********************************************************************************************************************************
 LABEL *                                                                                                                                                                 
  (6 PROC) 64 bit mpp version                                                            DATE: 09-Jan-25          TIME: 11:42:35  
 **********************************************************************************************************************************

 SHA1:             5a9813c25d9a7b7fe243115095799e27f07d421d
 **********************************************************************************************************************************

 Memory per process:       500 MW
 Total memory per node:   3000 MW

 GA preallocation disabled
 GA check disabled

 Variable memory set to 500.0 MW


 THRESHOLDS:

 ZERO    =  1.00D-12  ONEINT  =  1.00D-12  TWOINT  =  1.00D-14  PREFAC  =  1.00D-16  XXXXXX  =  1.00D-09  EORDER  =  1.00D-04
 ENERGY  =  0.00D+00  ETEST   =  0.00D+00  EDENS   =  0.00D+00  THRDEDEF=  1.00D-06  GRADIENT=  1.00D-05  STEP    =  1.00D-03
 ORBITAL =  1.00D-05  CIVEC   =  1.00D-05  COEFF   =  1.00D-04  PRINTCI =  5.00D-02  PUNCHCI =  9.90D+01  OPTGRAD =  1.00D-07
 OPTENERG=  1.00D-06  OPTSTEP =  3.00D-04  THRGRAD =  1.00D-10  COMPRESS=  1.00D-11  VARMIN  =  1.00D-07  VARMAX  =  1.00D-03
 THRDOUB =  0.00D+00  THRDIV  =  1.00D-05  THRRED  =  1.00D-07  THRPSP  =  1.00D+00  THRDC   =  1.00D-10  THRCS   =  1.00D-10
 THRNRM  =  1.00D-08  THREQ   =  0.00D+00  THRDE   =  1.00D+00  THRREF  =  1.00D-05  SPARFAC =  1.00D+00  THRDLP  =  1.00D-07
 THRDIA  =  1.00D-10  THRDLS  =  1.00D-07  THRGPS  =  0.00D+00  THRKEX  =  0.00D+00  THRDIS  =  2.00D-01  THRVAR  =  1.00D-10
 THRLOC  =  1.00D-06  THRGAP  =  1.00D-06  THRLOCT = -1.00D+00  THRGAPT = -1.00D+00  THRORB  =  1.00D-06  THRMLTP =  0.00D+00
 THRCPQCI=  1.00D-10  KEXTA   =  0.00D+00  THRCOARS=  0.00D+00  SYMTOL  =  1.00D-06  GRADTOL =  1.00D-06  THROVL  =  1.00D-08
 THRORTH =  1.00D-08  THRDLOVL= -1.00D+00  GRID    =  1.00D-06  GRIDMAX =  1.00D-03  DTMAX   =  0.00D+00  THROCCDE=  1.00D-01
 THROCCDE=  1.00D-01  THRPRINT=  2.50D-01

 ZCENTRE=MASS


 Geometry recognized as XYZ



 Using masses of most abundant isotopes

 **********************************************************************************************************************************
 SETTING BASIS          =    6-311G(D,P)


 Recomputing integrals since basis changed


 Using spherical harmonics

 Library entry C      S 6-311G               selected for orbital group  1
 Library entry C      P 6-311G               selected for orbital group  1
 Library entry C      D 6-311G*              selected for orbital group  1
 Library entry H      S 6-311G               selected for orbital group  2
 Library entry H      P 6-311G**             selected for orbital group  2
 Library entry O      S 6-311G               selected for orbital group  5
 Library entry O      P 6-311G               selected for orbital group  5
 Library entry O      D 6-311G*              selected for orbital group  5


 PROGRAM * SEWARD (Integral evaluation for generally contracted gaussian basis sets)     Author: Roland Lindh, 1990

 Geometry written to block  1 of record 700

 Orientation using atomic masses  
 Molecule type: Asymmetric top
 Rotational constants:       3.8441666      3.6091852     25.2799560 GHz

 Point group  C1  



 ATOMIC COORDINATES

 NR  ATOM    CHARGE       X              Y              Z

   1  C1      6.00    0.268096589    0.028261367   -3.681164366
   2  C2      6.00   -0.995329359   -0.045468957   -1.090552948
   3  H1      1.00    1.393468264    1.787646891   -3.893882846
   4  H2      1.00   -1.198950679   -0.016576838   -5.180737818
   5  H3      1.00    1.529837156   -1.631735760   -3.925363700
   6  H4      1.00   -2.274324534    1.610626108   -0.906172095
   7  C3      6.00    0.966066223    0.013151169    1.033075345
   8  H5      1.00   -2.138892119   -1.800657829   -0.934132687
   9  H6      1.00    2.160191626    1.743021165    0.906599381
  10  H7      1.00    2.246705933   -1.641678736    0.861844412
  11  O       8.00   -0.231578650   -0.102204468    3.392345690
  12  H8      1.00   -0.886464472    1.619712769    3.748242176

 Bond lengths in Bohr (Angstrom)

 1-2  2.883218480  1-3  2.099320838  1-4  2.098322828  1-5  2.099336332  2-6  2.100589399
     ( 1.525733514)     ( 1.110912746)     ( 1.110384622)     ( 1.110920945)     ( 1.111584039)

  2- 7  2.891419388   2- 8  2.100688234   7- 9  2.105797201   7-10  2.099480915   7-11  2.648361139
       ( 1.530073247)       ( 1.111636341)       ( 1.114339889)       ( 1.110997455)       ( 1.401452361)

 11-12  1.876309335
       ( 0.992900140)

 Bond angles

  1-2-6  108.99680329   1-2-7  111.23227972   1-2-8  109.07564374   2-1-3  110.32707582

  2- 1- 4  109.58536722   2- 1- 5  110.34442879   2- 7- 9  110.92904902   2- 7-10  109.74886940

  2- 7-11  110.28187620   3- 1- 4  108.68018600   3- 1- 5  109.19074152   4- 1- 5  108.67362819

  6- 2- 7  109.42537060   6- 2- 8  108.70745514   7- 2- 8  109.36153006   7-11-12  106.66879756

  9- 7-10  107.25957071   9- 7-11  110.22607726  10- 7-11  108.31065811

 NUCLEAR CHARGE:                   34
 NUMBER OF PRIMITIVE AOS:         192
 NUMBER OF SYMMETRY AOS:          188
 NUMBER OF CONTRACTIONS:          120   (  120A   )
 NUMBER OF INNER CORE ORBITALS:     0   (    0A   )
 NUMBER OF OUTER CORE ORBITALS:     4   (    4A   )
 NUMBER OF VALENCE ORBITALS:       24   (   24A   )


 NUCLEAR REPULSION ENERGY  130.32946621


 Eigenvalues of metric

         1 0.238E-02 0.551E-02 0.104E-01 0.125E-01 0.177E-01 0.232E-01 0.239E-01 0.246E-01


 Contracted 2-electron integrals neglected if value below      1.0D-14
 AO integral compression algorithm  1   Integral accuracy      1.0D-14

     158.859 MB (compressed) written to integral file ( 67.0%)

     Node minimum: 25.690 MB, node maximum: 27.787 MB


 NUMBER OF SORTED TWO-ELECTRON INTEGRALS:    4395930.     BUFFER LENGTH:  32768
 NUMBER OF SEGMENTS:   1  SEGMENT LENGTH:    4395930      RECORD LENGTH: 524288

 Memory used in sort:       4.95 MW

 SORT1 READ    29624924. AND WROTE     4117845. INTEGRALS IN     12 RECORDS. CPU TIME:     0.42 SEC, REAL TIME:     0.46 SEC
 SORT2 READ    24035056. AND WROTE    26357430. INTEGRALS IN    594 RECORDS. CPU TIME:     0.07 SEC, REAL TIME:     0.11 SEC

 Node minimum:     4389880.  Node maximum:     4395930. integrals

 OPERATOR DM      FOR CENTER  0  COORDINATES:    0.000000    0.000000    0.000000


 **********************************************************************************************************************************
 DATASETS  * FILE   NREC   LENGTH (MB)   RECORD NAMES
              1      18       29.55       500      610      700      900      950      970     1000      129      960     1100   
                                          VAR    BASINP    GEOM    SYMINP    ZMAT    AOBASIS   BASIS     P2S    ABASIS      S 
                                         1400     1410     1200     1210     1080     1600     1650     1700   
                                           T        V       H0       H01     AOSYM     SMH    MOLCAS    OPER   

 PROGRAMS   *        TOTAL       INT
 CPU TIMES  *         1.21      1.02
 REAL TIME  *         1.66 SEC
 DISK USED  *        30.08 MB (local),      602.91 MB (total)
 GA USED    *         0.00 MB       (max)       0.00 MB       (current)
 **********************************************************************************************************************************


 Program * Restricted Hartree-Fock


 Generating basis MINAO
  Atom=C        basis=MINAO
  Atom=H        basis=MINAO
  Atom=O        basis=MINAO
 Number of basis functions:      28

 Orbital guess generated from atomic densities.

 Initial occupancy:  17

 NELEC=   34   SYM=1   MS2= 0   THRE=1.0D-08   THRD=1.0D-06   THRG=1.0D-06  HFMA2=F  DIIS_START=2   DIIS_MAX=10   DIIS_INCORE=F

 Level shifts:    0.00 (CLOSED)    0.00 (OPEN)    0.30 (GAP_MIN)

 ITER           ETOT              DE          GRAD        DDIFF     DIIS  NEXP   TIME(IT)  TIME(TOT)  DIAG
   1     -193.09706489    -193.09706489     0.00D+00     0.37D-01     0     0       0.04      0.11    start
   2     -193.15206644      -0.05500155     0.56D-02     0.44D-02     1     0       0.02      0.13    diag
   3     -193.16140146      -0.00933502     0.27D-02     0.16D-02     2     0       0.03      0.16    diag
   4     -193.16251375      -0.00111229     0.69D-03     0.60D-03     3     0       0.02      0.18    diag
   5     -193.16257716      -0.00006341     0.16D-03     0.16D-03     4     0       0.04      0.22    diag
   6     -193.16258229      -0.00000513     0.45D-04     0.50D-04     5     0       0.04      0.26    diag
   7     -193.16258260      -0.00000031     0.96D-05     0.14D-04     6     0       0.03      0.29    diag
   8     -193.16258262      -0.00000002     0.20D-05     0.34D-05     7     0       0.04      0.33    fixocc
   9     -193.16258262      -0.00000000     0.53D-06     0.73D-06     8     0       0.03      0.36    diag
  10     -193.16258262      -0.00000000     0.16D-06     0.18D-06     0     0       0.04      0.40    diag/orth

 Final occupancy:  17

 !RHF STATE 1.1 Energy               -193.162582620024
  RHF One-electron energy            -520.377186850964
  RHF Two-electron energy             196.885138017210
  RHF Kinetic energy                  192.850471507606
  RHF Nuclear energy                  130.329466213729
  RHF Virial quotient                  -1.001618409901

 !RHF STATE 1.1 Dipole moment           0.01082005     0.57054229    -0.40251619
 Dipole moment /Debye                   0.02750182     1.45017385    -1.02309411

 Orbital energies:

           1.1          2.1          3.1          4.1          5.1          6.1          7.1          8.1          9.1         10.1
    -20.546862   -11.274589   -11.223865   -11.222949    -1.354693    -1.048242    -0.906241    -0.804255    -0.690082    -0.628660

          11.1         12.1         13.1         14.1         15.1         16.1         17.1         18.1         19.1
     -0.596964    -0.585652    -0.533675    -0.498599    -0.494193    -0.466572    -0.427359     0.148704     0.161646


 HOMO     17.1    -0.427359 =     -11.6290eV
 LUMO     18.1     0.148704 =       4.0464eV
 LUMO-HOMO         0.576063 =      15.6755eV

 Orbitals saved in record  2100.2


 **********************************************************************************************************************************
 DATASETS  * FILE   NREC   LENGTH (MB)   RECORD NAMES
              1      18       29.55       500      610      700      900      950      970     1000      129      960     1100   
                                          VAR    BASINP    GEOM    SYMINP    ZMAT    AOBASIS   BASIS     P2S    ABASIS      S 
                                         1400     1410     1200     1210     1080     1600     1650     1700   
                                           T        V       H0       H01     AOSYM     SMH    MOLCAS    OPER   

              2       4        0.79       700     1000      520     2100   
                                         GEOM     BASIS   MCVARS     RHF  

 PROGRAMS   *        TOTAL    HF-SCF       INT
 CPU TIMES  *         1.61      0.40      1.02
 REAL TIME  *         2.12 SEC
 DISK USED  *        31.37 MB (local),      610.67 MB (total)
 GA USED    *         0.00 MB       (max)       0.00 MB       (current)
 **********************************************************************************************************************************


 PROGRAM * OPT (Geometry optimization)     Authors: F. Eckert and H.-J. Werner


 BFGS update of hessian

 *** Long output written to logfile /home/lme/graph_IC/tests/propanol_molpro.log ***


 Geometry optimization using default procedure for command HF-SCF

 Geometry written to block  1 of record 700

 PQS Optimization using delocalized internal coordinates

 Point group c1. Number of degrees of freedom:   30

 ITER.   ENERGY(OLD)    ENERGY(NEW)      DE          GRADMAX     GRADNORM    GRADRMS     STEPMAX     STEPLEN     STEPRMS   CPU-time
   1  -193.16258262  -193.16928223    -0.00669961  0.03466769  0.07175576  0.01310075  0.09191645  0.22584531  0.04123352      2.42
   2  -193.16928223  -193.16949874    -0.00021651  0.00615056  0.00927439  0.00169326  0.04376396  0.09269058  0.01692291      5.00
   3  -193.16949874  -193.16958540    -0.00008665  0.00148209  0.00293557  0.00053596  0.04657774  0.08518363  0.01555233      7.37
   4  -193.16958540  -193.16970455    -0.00011915  0.00108364  0.00208974  0.00038153  0.15433451  0.26927488  0.04916264      9.58
   5  -193.16970455  -193.16970849    -0.00000394  0.00060323  0.00133535  0.00024380  0.00407628  0.01150381  0.00210030     11.89
   6  -193.16970849  -193.16970886    -0.00000037  0.00013317  0.00036878  0.00006733  0.00235371  0.00644125  0.00117601     14.19
   7  -193.16970886  -193.16970888    -0.00000002  0.00005012  0.00010407  0.00001900  0.00029887  0.00063855  0.00011658     16.31
   8  -193.16970888  -193.16970888    -0.00000000  0.00000707  0.00001539  0.00000281  0.00019168  0.00024192  0.00004417     18.59
   9  -193.16970888  -193.16970888    -0.00000000  0.00000231  0.00000483  0.00000088  0.00007998  0.00014472  0.00002642     20.68
  10  -193.16970888  -193.16970888    -0.00000000  0.00000125  0.00000256  0.00000047  0.00004690  0.00006353  0.00001160     22.71
  11  -193.16970888  -193.16970888    -0.00000000  0.00000067  0.00000133  0.00000024  0.00002138  0.00004256  0.00000777     24.74
  12  -193.16970888  -193.16970888    -0.00000000  0.00000035  0.00000082  0.00000015  0.00001516  0.00003136  0.00000573     26.82
  13  -193.16970888  -193.16970888     0.00000000  0.00000023  0.00000053  0.00000010  0.00001985  0.00004332  0.00000791     28.98
  14  -193.16970888  -193.16970888    -0.00000000  0.00000018  0.00000040  0.00000007  0.00002686  0.00004618  0.00000843     31.12
  15  -193.16970888  -193.16970888     0.00000000  0.00000016  0.00000035  0.00000006  0.00003485  0.00006202  0.00001132     33.19
  16  -193.16970888  -193.16970888     0.00000000  0.00000014  0.00000036  0.00000007  0.00004494  0.00007587  0.00001385     35.26
  17  -193.16970888  -193.16970888     0.00000000  0.00000019  0.00000043  0.00000008  0.00005786  0.00009953  0.00001817     37.33
  18  -193.16970888  -193.16970888    -0.00000000  0.00000013  0.00000035  0.00000006  0.00004451  0.00007436  0.00001358     39.47
  19  -193.16970888  -193.16970888     0.00000000  0.00000012  0.00000033  0.00000006  0.00004291  0.00007243  0.00001322     41.92
  20  -193.16970888  -193.16970888     0.00000000  0.00000018  0.00000042  0.00000008  0.00006095  0.00010356  0.00001891     44.10
  21  -193.16970888  -193.16970888    -0.00000000  0.00000013  0.00000034  0.00000006  0.00004240  0.00007168  0.00001309     46.15
  22  -193.16970888  -193.16970888     0.00000000  0.00000013  0.00000033  0.00000006  0.00004204  0.00007104  0.00001297     48.16
  23  -193.16970888  -193.16970888     0.00000000  0.00000017  0.00000042  0.00000008  0.00005950  0.00010125  0.00001849     50.25
  24  -193.16970888  -193.16970888    -0.00000000  0.00000013  0.00000034  0.00000006  0.00004175  0.00007065  0.00001290     52.35
  25  -193.16970888  -193.16970888     0.00000000  0.00000012  0.00000033  0.00000006  0.00004127  0.00006992  0.00001277     54.48
  26  -193.16970888  -193.16970888    -0.00000000  0.00000016  0.00000041  0.00000008  0.00005847  0.00009910  0.00001809     56.50
  27  -193.16970888  -193.16970888     0.00000000  0.00000012  0.00000033  0.00000006  0.00004099  0.00006893  0.00001259     58.55
  28  -193.16970888  -193.16970888     0.00000000  0.00000012  0.00000031  0.00000006  0.00004040  0.00006796  0.00001241     60.72
  29  -193.16970888  -193.16970888    -0.00000000  0.00000016  0.00000039  0.00000007  0.00005684  0.00009620  0.00001756     62.84
  30  -193.16970888  -193.16970888    -0.00000000  0.00000012  0.00000032  0.00000006  0.00003957  0.00006696  0.00001222     64.94
  31  -193.16970888  -193.16970888     0.00000000  0.00000012  0.00000031  0.00000006  0.00003908  0.00006628  0.00001210     66.93
  32  -193.16970888  -193.16970888     0.00000000  0.00000016  0.00000039  0.00000007  0.00005522  0.00009374  0.00001711     68.99
  33  -193.16970888  -193.16970888    -0.00000000  0.00000012  0.00000031  0.00000006  0.00003874  0.00006527  0.00001192     71.06
  34  -193.16970888  -193.16970888    -0.00000000  0.00000011  0.00000030  0.00000005  0.00003808  0.00006415  0.00001171     73.26
  35  -193.16970888  -193.16970888     0.00000000  0.00000014  0.00000037  0.00000007  0.00005362  0.00009065  0.00001655     75.46
  36  -193.16970888  -193.16970888    -0.00000000  0.00000012  0.00000030  0.00000006  0.00003752  0.00006359  0.00001161     77.48
  37  -193.16970888  -193.16970888     0.00000000  0.00000012  0.00000029  0.00000005  0.00003690  0.00006271  0.00001145     79.81
  38  -193.16970888  -193.16970888     0.00000000  0.00000014  0.00000037  0.00000007  0.00005226  0.00008852  0.00001616     82.00
  39  -193.16970888  -193.16970888     0.00000000  0.00000011  0.00000030  0.00000005  0.00003664  0.00006177  0.00001128     84.09
  40  -193.16970888  -193.16970888     0.00000000  0.00000011  0.00000028  0.00000005  0.00003598  0.00006061  0.00001107     86.12
  41  -193.16970888  -193.16970888     0.00000000  0.00000014  0.00000035  0.00000006  0.00005073  0.00008575  0.00001566     88.23
  42  -193.16970888  -193.16970888    -0.00000000  0.00000011  0.00000028  0.00000005  0.00003545  0.00006008  0.00001097     90.40
  43  -193.16970888  -193.16970888     0.00000000  0.00000011  0.00000028  0.00000005  0.00003488  0.00005927  0.00001082     92.46
  44  -193.16970888  -193.16970888     0.00000000  0.00000014  0.00000035  0.00000006  0.00004938  0.00008364  0.00001527     94.52
  45  -193.16970888  -193.16970888     0.00000000  0.00000018  0.00000042  0.00000008  0.00005945  0.00010142  0.00001852     96.70
  46  -193.16970888  -193.16970888    -0.00000000  0.00000014  0.00000037  0.00000007  0.00004732  0.00007983  0.00001457     98.78
  47  -193.16970888  -193.16970888     0.00000000  0.00000014  0.00000035  0.00000006  0.00004530  0.00007697  0.00001405    100.83
  48  -193.16970888  -193.16970888     0.00000000  0.00000020  0.00000046  0.00000008  0.00006490  0.00011095  0.00002026    102.89
  49  -193.16970888  -193.16970888    -0.00000000  0.00000015  0.00000037  0.00000007  0.00004520  0.00007648  0.00001396    104.96
  50  -193.16970888  -193.16970888    -0.00000000  0.00000014  0.00000035  0.00000006  0.00004443  0.00007515  0.00001372    107.12
  51  -193.16970888  -193.16970888     0.00000000  0.00000017  0.00000043  0.00000008  0.00006259  0.00010567  0.00001929    109.22
  52  -193.16970888  -193.16970888    -0.00000000  0.00000013  0.00000035  0.00000006  0.00004369  0.00007350  0.00001342    111.26
  53  -193.16970888  -193.16970888    -0.00000000  0.00000013  0.00000033  0.00000006  0.00004270  0.00007223  0.00001319    113.34
  54  -193.16970888  -193.16970888    -0.00000000  0.00000016  0.00000042  0.00000008  0.00006028  0.00010204  0.00001863    115.39
  55  -193.16970888  -193.16970888     0.00000000  0.00000013  0.00000034  0.00000006  0.00004198  0.00007065  0.00001290    117.46
  56  -193.16970888  -193.16970888    -0.00000000  0.00000012  0.00000032  0.00000006  0.00004113  0.00006925  0.00001264    119.73
  57  -193.16970888  -193.16970888    -0.00000000  0.00000016  0.00000040  0.00000007  0.00005800  0.00009804  0.00001790    121.90
  58  -193.16970888  -193.16970888    -0.00000000  0.00000013  0.00000032  0.00000006  0.00004028  0.00006816  0.00001244    123.93
  59  -193.16970888  -193.16970888     0.00000000  0.00000013  0.00000031  0.00000006  0.00003937  0.00006677  0.00001219    125.96
  60  -193.16970888  -193.16970888     0.00000000  0.00000015  0.00000039  0.00000007  0.00005556  0.00009397  0.00001716    128.18
  61  -193.16970888  -193.16970888    -0.00000000  0.00000012  0.00000031  0.00000006  0.00003867  0.00006506  0.00001188    130.45
  62  -193.16970888  -193.16970888     0.00000000  0.00000011  0.00000029  0.00000005  0.00003789  0.00006379  0.00001165    132.63
  63  -193.16970888  -193.16970888    -0.00000000  0.00000014  0.00000037  0.00000007  0.00005342  0.00009028  0.00001648    134.78
  64  -193.16970888  -193.16970888    -0.00000000  0.00000012  0.00000030  0.00000005  0.00003709  0.00006277  0.00001146    136.81
  65  -193.16970888  -193.16970888     0.00000000  0.00000011  0.00000029  0.00000005  0.00003643  0.00006186  0.00001129    138.84
  66  -193.16970888  -193.16970888    -0.00000000  0.00000014  0.00000036  0.00000007  0.00005158  0.00008736  0.00001595    140.89
  67  -193.16970888  -193.16970888     0.00000000  0.00000011  0.00000029  0.00000005  0.00003613  0.00006090  0.00001112    142.96
  68  -193.16970888  -193.16970888    -0.00000000  0.00000010  0.00000027  0.00000005  0.00003548  0.00005979  0.00001092    145.05
  69  -193.16970888  -193.16970888     0.00000000  0.00000013  0.00000035  0.00000006  0.00005002  0.00008456  0.00001544    147.17
  70  -193.16970888  -193.16970888    -0.00000000  0.00000011  0.00000028  0.00000005  0.00003497  0.00005929  0.00001082    149.21
  71  -193.16970888  -193.16970888    -0.00000000  0.00000011  0.00000027  0.00000005  0.00003441  0.00005846  0.00001067    151.45
  72  -193.16970888  -193.16970888     0.00000000  0.00000013  0.00000034  0.00000006  0.00004872  0.00008252  0.00001507    153.50
  73  -193.16970888  -193.16970888    -0.00000000  0.00000017  0.00000041  0.00000008  0.00005864  0.00010005  0.00001827    155.59
  74  -193.16970888  -193.16970888    -0.00000000  0.00000014  0.00000036  0.00000007  0.00004673  0.00007901  0.00001443    157.80
  75  -193.16970888  -193.16970888     0.00000000  0.00000014  0.00000035  0.00000006  0.00004489  0.00007617  0.00001391    159.94
  76  -193.16970888  -193.16970888    -0.00000000  0.00000019  0.00000046  0.00000008  0.00006437  0.00011008  0.00002010    162.06
  77  -193.16970888  -193.16970888     0.00000000  0.00000014  0.00000037  0.00000007  0.00004501  0.00007597  0.00001387    164.20
  78  -193.16970888  -193.16970888    -0.00000000  0.00000014  0.00000035  0.00000006  0.00004430  0.00007509  0.00001371    166.24
  79  -193.16970888  -193.16970888    -0.00000000  0.00000018  0.00000044  0.00000008  0.00006247  0.00010631  0.00001941    168.33
  80  -193.16970888  -193.16970888    -0.00000000  0.00000013  0.00000036  0.00000007  0.00004380  0.00007401  0.00001351    170.44
  81  -193.16970888  -193.16970888     0.00000000  0.00000013  0.00000034  0.00000006  0.00004309  0.00007264  0.00001326    172.56
  82  -193.16970888  -193.16970888     0.00000000  0.00000016  0.00000042  0.00000008  0.00006069  0.00010227  0.00001867    174.81
  83  -193.16970888  -193.16970888    -0.00000000  0.00000013  0.00000033  0.00000006  0.00004195  0.00007043  0.00001286    177.23
  84  -193.16970888  -193.16970888    -0.00000000  0.00000013  0.00000032  0.00000006  0.00004078  0.00006916  0.00001263    179.48
  85  -193.16970888  -193.16970888    -0.00000000  0.00000017  0.00000041  0.00000007  0.00005777  0.00009833  0.00001795    181.59
  86  -193.16970888  -193.16970888    -0.00000000  0.00000013  0.00000033  0.00000006  0.00004051  0.00006872  0.00001255    184.02
  87  -193.16970888  -193.16970888     0.00000000  0.00000012  0.00000031  0.00000006  0.00004006  0.00006758  0.00001234    186.62
  88  -193.16970888  -193.16970888    -0.00000000  0.00000015  0.00000039  0.00000007  0.00005649  0.00009540  0.00001742    188.77
  89  -193.16970888  -193.16970888     0.00000000  0.00000012  0.00000031  0.00000006  0.00003939  0.00006632  0.00001211    190.86
  90  -193.16970888  -193.16970888     0.00000000  0.00000012  0.00000030  0.00000006  0.00003848  0.00006524  0.00001191    193.19
  91  -193.16970888  -193.16970888    -0.00000000  0.00000015  0.00000038  0.00000007  0.00005444  0.00009249  0.00001689    195.46
  92  -193.16970888  -193.16970888     0.00000000  0.00000012  0.00000031  0.00000006  0.00003831  0.00006501  0.00001187    197.58
  93  -193.16970888  -193.16970888     0.00000000  0.00000011  0.00000030  0.00000005  0.00003792  0.00006403  0.00001169    199.68
  94  -193.16970888  -193.16970888    -0.00000000  0.00000014  0.00000037  0.00000007  0.00005349  0.00009014  0.00001646    202.08
  95  -193.16970888  -193.16970888     0.00000000  0.00000011  0.00000030  0.00000005  0.00003726  0.00006277  0.00001146    204.46
  96  -193.16970888  -193.16970888    -0.00000000  0.00000011  0.00000028  0.00000005  0.00003637  0.00006168  0.00001126    207.01
  97  -193.16970888  -193.16970888     0.00000000  0.00000015  0.00000036  0.00000007  0.00005150  0.00008753  0.00001598    209.21
  98  -193.16970888  -193.16970888    -0.00000000  0.00000011  0.00000030  0.00000005  0.00003624  0.00006149  0.00001123    211.43
  99  -193.16970888  -193.16970888     0.00000000  0.00000011  0.00000028  0.00000005  0.00003588  0.00006058  0.00001106    213.54
 100  -193.16970888  -193.16970888     0.00000000  0.00000013  0.00000035  0.00000006  0.00005060  0.00008527  0.00001557    216.05


 ? Warning
 ? No convergence in max. number of iterations

 END OF GEOMETRY OPTIMIZATION.

 Geometry written to block  1 of record 700

 Recomputing wavefunction for reoriented structure

 Current geometry (xyz format, in Angstrom)

   12
 HF-SCF000/6-311G(D,P)  ENERGY=-193.16970888
 C           0.1389635803        0.0053340620       -1.9635522730
 C          -0.5168872851       -0.0202576661       -0.5844166978
 H           0.7302007505        0.9066907196       -2.1039822810
 H          -0.6072170759       -0.0256296585       -2.7508877661
 H           0.7983459194       -0.8478507545       -2.0997238100
 H          -1.1945547379        0.8279494963       -0.4877707309
 C           0.4971638093        0.0237013253        0.5500265902
 H          -1.1208789384       -0.9164074988       -0.4712805579
 H           1.1090419580        0.9225440179        0.4692399162
 H           1.1650346619       -0.8274889817        0.4848056837
 O          -0.1032909442       -0.0528261545        1.8151268295
 H          -0.6604422608        0.6940670260        1.9413853625

 **********************************************************************************************************************************


 **********************************************************************************************************************************
 DATASETS  * FILE   NREC   LENGTH (MB)   RECORD NAMES
              1      19       29.56       500      610      700      900      700(1)   950      970     1000      129      960   
                                          VAR    BASINP    GEOM    SYMINP    GEOM     ZMAT    AOBASIS   BASIS     P2S    ABASIS    
                                         1100     1400     1410     1200     1210     1080     1600     1650     1700   
                                           S        T        V       H0       H01     AOSYM     SMH    MOLCAS    OPER   

              2       5        0.96       700     1000      520     2100      700(1)
                                         GEOM     BASIS   MCVARS     RHF     GEOM   

 PROGRAMS   *        TOTAL      OPTG    HF-SCF       INT
 CPU TIMES  *       219.05    217.44      0.40      1.02
 REAL TIME  *       236.94 SEC
 DISK USED  *        31.54 MB (local),      639.75 MB (total)
 SF USED    *         0.35 MB
 GA USED    *         0.00 MB       (max)       0.00 MB       (current)
 **********************************************************************************************************************************


 PROGRAM * HESSIAN

 PROGRAM * MCKINLEY (Hessian of the energy)     Author: A. Bernhardsson, R. Lindh

 Orbitals from record         2100.2

 Number of closed-shell orbitals: 17 ( 17 )
 Number of occupied orbitals:     17 ( 17 )

 Number of electrons= 34     Singlet     Space symmetry=1      Wavefunction type: CLOSED          


 McKinley needed     10.53 seconds of CPU time

 Entering CPHF calculation

 CPHF needed 295 iterations for 36 perturbations.  Total CPU time:   13.06 sec


 HF-SCF hessian saved to record  5300.2

 PROGRAM * FREQUENCIES (Calculation of harmonic vibrational spectra for HF-SCF)


 Permanent Dipole Moment [debye]
     1-   3    0.000000    0.000000    0.000000

 Dipole Moment Norm    0.0000000 [debye]

 Dipole Moment Derivatives [debye/ang]
              1             2             3             4             5             6             7             8
    1    0.00000000    0.00000000    0.00000000    0.00000000    0.00000000    0.00000000    0.00000000    0.00000000
    2    0.00000000    0.00000000    0.00000000    0.00000000    0.00000000    0.00000000    0.00000000    0.00000000
    3    0.00000000    0.00000000    0.00000000    0.00000000    0.00000000    0.00000000    0.00000000    0.00000000
              9            10            11            12            13            14            15            16
    1    0.00000000    0.00000000    0.00000000    0.00000000    0.00000000    0.00000000    0.00000000    0.00000000
    2    0.00000000    0.00000000    0.00000000    0.00000000    0.00000000    0.00000000    0.00000000    0.00000000
    3    0.00000000    0.00000000    0.00000000    0.00000000    0.00000000    0.00000000    0.00000000    0.00000000
             17            18            19            20            21            22            23            24
    1    0.00000000    0.00000000    0.00000000    0.00000000    0.00000000    0.00000000    0.00000000    0.00000000
    2    0.00000000    0.00000000    0.00000000    0.00000000    0.00000000    0.00000000    0.00000000    0.00000000
    3    0.00000000    0.00000000    0.00000000    0.00000000    0.00000000    0.00000000    0.00000000    0.00000000
             25            26            27            28            29            30            31            32
    1    0.00000000    0.00000000    0.00000000    0.00000000    0.00000000    0.00000000    0.00000000    0.00000000
    2    0.00000000    0.00000000    0.00000000    0.00000000    0.00000000    0.00000000    0.00000000    0.00000000
    3    0.00000000    0.00000000    0.00000000    0.00000000    0.00000000    0.00000000    0.00000000    0.00000000
             33            34            35            36
    1    0.00000000    0.00000000    0.00000000    0.00000000
    2    0.00000000    0.00000000    0.00000000    0.00000000
    3    0.00000000    0.00000000    0.00000000    0.00000000

 Projecting out rotations and translations

 Force Constants (Second Derivatives of the Energy) in [a.u.]
                             C1X1        C1Y1        C1Z1        C2X2        C2Y2    
           C1X1          0.6101437
           C1Y1         -0.0009098   0.6236029
           C1Z1          0.0409269   0.0012539   0.5566802
           C2X2         -0.1223859  -0.0016678   0.0495499   0.6067322
           C2Y2         -0.0019802  -0.0942814   0.0018246   0.0042775   0.6590750
           C2Z2          0.0502778   0.0015094  -0.1994845  -0.0126729  -0.0033794
           H1X3         -0.1369067  -0.1222989   0.0174888  -0.0087504  -0.0141993
           H1Y3         -0.1230520  -0.2480632   0.0274617   0.0011988   0.0011337
           H1Z3          0.0167044   0.0256330  -0.0611130   0.0183933   0.0310643
           H2X4         -0.1927139  -0.0056254  -0.1419706   0.0150262   0.0007916
           H2Y4         -0.0056083  -0.0565941  -0.0058893   0.0006423  -0.0009223
           H2Z4         -0.1391759  -0.0057840  -0.2001367  -0.0267912  -0.0012035
           H3X5         -0.1568758   0.1299287   0.0189706  -0.0096793   0.0133195
           H3Y5          0.1307837  -0.2291495  -0.0253427  -0.0018696   0.0019911
           H3Z5          0.0179292  -0.0235024  -0.0607925   0.0206815  -0.0293490
           H4X6         -0.0093225   0.0125644   0.0010959  -0.1573300   0.1240373
           H4Y6         -0.0015273   0.0015432   0.0006551   0.1264084  -0.2228639
           H4Z6          0.0223644  -0.0295141  -0.0030262   0.0130678  -0.0170050
           C3X7          0.0185857   0.0007985   0.0139419  -0.1712328  -0.0030323
           C3Y7          0.0004608  -0.0001312   0.0004085  -0.0020713  -0.1003802
           C3Z7         -0.0177443  -0.0009311  -0.0276943  -0.0757354  -0.0032162
           H5X8         -0.0079543  -0.0126778   0.0009464  -0.1406130  -0.1215906
           H5Y8          0.0014897   0.0018829  -0.0004663  -0.1245929  -0.2493897
           H5Z8          0.0194066   0.0307065  -0.0030186   0.0157350   0.0228330
           H6X9          0.0000036  -0.0000616   0.0008844  -0.0130282  -0.0249426
           H6Y9         -0.0002668  -0.0001642  -0.0000446   0.0004406  -0.0004693
           H6Z9         -0.0000152  -0.0005399   0.0018993  -0.0151888  -0.0243500
           H7X10         0.0003699  -0.0000479   0.0010332  -0.0151790   0.0225868
           H7Y10         0.0001953  -0.0000275   0.0001829  -0.0019073   0.0024380
           H7Z10        -0.0001060   0.0006343   0.0017879  -0.0169688   0.0233294
           OX11         -0.0024060  -0.0000912  -0.0022592   0.0135319   0.0025240
           OY11          0.0001945   0.0012232  -0.0001952   0.0005787   0.0031057
           OZ11         -0.0106383  -0.0000830  -0.0048598   0.0292987   0.0017224
           H8X12        -0.0005379   0.0000889  -0.0006083   0.0029084  -0.0017917
           H8Y12         0.0002203   0.0001588   0.0001514  -0.0014375   0.0005633
           H8Z12         0.0000703   0.0006172  -0.0002419   0.0006308  -0.0022707
                             C2Z2        H1X3        H1Y3        H1Z3        H2X4    
           C2Z2          0.5378182
           H1X3          0.0011497   0.1441820
           H1Y3          0.0000098   0.1377558   0.2668599
           H1Z3         -0.0020819  -0.0216355  -0.0295631   0.0633308
           H2X4          0.0152956  -0.0135961   0.0001610  -0.0130916   0.2062271
           H2Y4          0.0006167  -0.0219137   0.0003721  -0.0235850   0.0063064
           H2Z4         -0.0229844   0.0036676  -0.0011387   0.0042113   0.1529125
           H3X5          0.0011016   0.0147574  -0.0161082  -0.0026896  -0.0151736
           H3Y5          0.0001451   0.0189763  -0.0234272  -0.0028753  -0.0014882
           H3Z5         -0.0023389  -0.0029926   0.0027789  -0.0002663  -0.0149075
           H4X6          0.0123868  -0.0001209  -0.0002095  -0.0005456   0.0009235
           H4Y6         -0.0177613   0.0002585   0.0010292  -0.0006521  -0.0001138
           H4Z6         -0.0598288  -0.0005429   0.0007170   0.0016383  -0.0011008
           C3X7         -0.0614345  -0.0000941  -0.0006846   0.0011201  -0.0026355
           C3Y7         -0.0052845   0.0001684  -0.0004348   0.0017592  -0.0000661
           C3Z7         -0.1493646  -0.0010620  -0.0004327   0.0013642   0.0022755
           H5X8          0.0137451  -0.0005082   0.0001348   0.0030536   0.0008189
           H5Y8          0.0219578   0.0006016   0.0017609  -0.0003515   0.0001167
           H5Z8         -0.0601867   0.0035310  -0.0003781  -0.0067978  -0.0011160
           H6X9         -0.0000569   0.0008071   0.0005159  -0.0006241   0.0002687
           H6Y9          0.0015090   0.0003122   0.0005081  -0.0006276   0.0003057
           H6Z9          0.0027327   0.0002705   0.0004384  -0.0005127   0.0000889
           H7X10         0.0002853   0.0000628  -0.0000856  -0.0001091   0.0002191
           H7Y10        -0.0003827   0.0000777  -0.0000225  -0.0000913  -0.0002791
           H7Z10         0.0020514   0.0000309  -0.0000248  -0.0000522   0.0001270
           OX11         -0.0190437   0.0002840   0.0004809  -0.0007882   0.0006002
           OY11          0.0004207   0.0003894   0.0003647  -0.0008304  -0.0000654
           OZ11         -0.0474688   0.0001475   0.0002386   0.0002265   0.0015624
           H8X12        -0.0010339  -0.0001170  -0.0001074   0.0002123   0.0000354
           H8Y12         0.0006393  -0.0001280  -0.0000807   0.0001197  -0.0000435
           H8Z12         0.0011363  -0.0000530  -0.0001070   0.0000528  -0.0000754
                             H2Y4        H2Z4        H3X5        H3Y5        H3Z5    
           H2Y4          0.0538681
           H2Z4          0.0063586   0.2175742
           H3X5          0.0206585   0.0034613   0.1665226
           H3Y5          0.0021582   0.0014219  -0.1460051   0.2454009
           H3Z5          0.0224971   0.0040866  -0.0232057   0.0269676   0.0630808
           H4X6         -0.0004448   0.0000903  -0.0004841  -0.0003467   0.0032525
           H4Y6          0.0000037  -0.0008503  -0.0005609   0.0017198   0.0001977
           H4Z6         -0.0002256   0.0013163   0.0036109   0.0006335  -0.0069244
           C3X7         -0.0000580   0.0069914  -0.0000722   0.0006232   0.0011685
           C3Y7         -0.0000262   0.0002353  -0.0002167  -0.0003332  -0.0015719
           C3Z7          0.0000006  -0.0024732  -0.0010335   0.0003514   0.0014311
           H5X8          0.0004934   0.0000421  -0.0001074   0.0000797  -0.0005710
           H5Y8          0.0000212   0.0008522  -0.0003178   0.0009345   0.0005900
           H5Z8          0.0001365   0.0012767  -0.0004682  -0.0007072   0.0016524
           H6X9          0.0004661  -0.0000918   0.0000763   0.0000691  -0.0001183
           H6Y9          0.0002784  -0.0003170  -0.0000600   0.0000027   0.0000880
           H6Z9          0.0002320   0.0003078   0.0000441   0.0000267  -0.0000310
           H7X10        -0.0004278   0.0000184   0.0008030  -0.0003794  -0.0006321
           H7Y10         0.0002194   0.0002669  -0.0002226   0.0004179   0.0005624
           H7Z10        -0.0002396   0.0002933   0.0003330  -0.0004807  -0.0005451
           OX11         -0.0000734  -0.0009307   0.0003444  -0.0004622  -0.0006334
           OY11          0.0006086  -0.0000085  -0.0003949   0.0003239   0.0006201
           OZ11         -0.0000030  -0.0036730   0.0002160  -0.0003427   0.0002331
           H8X12        -0.0000407  -0.0001940  -0.0001112   0.0000193   0.0000289
           H8Y12         0.0000129   0.0001671  -0.0000205  -0.0000391   0.0001214
           H8Z12         0.0001010   0.0002010  -0.0003405   0.0002025   0.0004142
                             H4X6        H4Y6        H4Z6        C3X7        C3Y7    
           H4X6          0.1699392
           H4Y6         -0.1414643   0.2378969
           H4Z6         -0.0142390   0.0197712   0.0658233
           C3X7         -0.0183537  -0.0010533  -0.0189926   0.6256686
           C3Y7          0.0243669   0.0008668   0.0249580  -0.0296890   0.6985764
           C3Z7          0.0044713  -0.0019130   0.0016953  -0.0186821   0.0007143
           H5X8          0.0140711   0.0190239  -0.0025253  -0.0166662  -0.0254856
           H5Y8         -0.0150849  -0.0242516   0.0024078  -0.0008263  -0.0012042
           H5Z8         -0.0022313  -0.0027437   0.0002115  -0.0172987  -0.0258180
           H6X9          0.0006685   0.0004234   0.0013193  -0.1390731  -0.1110726
           H6Y9         -0.0006020   0.0013191  -0.0005161  -0.1149064  -0.2484369
           H6Z9          0.0006987   0.0008953   0.0009989   0.0028573   0.0022782
           H7X10        -0.0030610  -0.0002357  -0.0041826  -0.1599875   0.1268877
           H7Y10        -0.0007740   0.0019568  -0.0004072   0.1349998  -0.2432378
           H7Z10        -0.0045500  -0.0004486  -0.0043885  -0.0008153   0.0001053
           OX11          0.0026691  -0.0018528   0.0009938  -0.1226620  -0.0019306
           OY11         -0.0021347   0.0009545  -0.0004549   0.0177407  -0.1090268
           OZ11          0.0007774   0.0018516   0.0033367   0.0618762   0.0415283
           H8X12         0.0004010   0.0006938   0.0002270  -0.0134772   0.0186480
           H8Y12         0.0000924  -0.0001746  -0.0003646  -0.0039124   0.0037681
           H8Z12        -0.0012071   0.0009980  -0.0008525   0.0292678  -0.0393128
                             C3Z7        H5X8        H5Y8        H5Z8        H6X9    
           C3Z7          0.5455846
           H5X8          0.0039153   0.1508479
           H5Y8          0.0018005   0.1374046   0.2664782
           H5Z8          0.0020193  -0.0159243  -0.0251481   0.0653324
           H6X9          0.0020645  -0.0032719  -0.0001456  -0.0042879   0.1495175
           H6Y9          0.0064066   0.0000041   0.0019491  -0.0001402   0.1324220
           H6Z9         -0.0595907  -0.0045880  -0.0000215  -0.0044691  -0.0120909
           H7X10         0.0053103   0.0005528  -0.0002426   0.0010203   0.0148266
           H7Y10        -0.0099841   0.0003313   0.0012373   0.0005416   0.0176134
           H7Z10        -0.0574691   0.0009190  -0.0006161   0.0010533  -0.0014719
           OX11          0.0946217   0.0029790   0.0019354   0.0017917  -0.0104778
           OY11          0.0031446   0.0022841   0.0010019   0.0010241  -0.0139396
           OZ11         -0.2482501   0.0011638  -0.0011190   0.0030487   0.0147413
           H8X12         0.0015986  -0.0001489  -0.0003379  -0.0001583  -0.0003172
           H8Y12         0.0040590  -0.0000019  -0.0004205  -0.0003064  -0.0013478
           H8Z12        -0.0072524  -0.0001766   0.0001141  -0.0001219  -0.0002677
                             H6Y9        H6Z9        H7X10       H7Y10       H7Z10   
           H6Y9          0.2605899
           H6Z9         -0.0134357   0.0741728
           H7X10        -0.0158769  -0.0015230   0.1753595
           H7Y10        -0.0240994  -0.0006574  -0.1474336   0.2526591
           H7Z10         0.0001851   0.0022946  -0.0134092   0.0118305   0.0742956
           OX11         -0.0018828   0.0306792  -0.0130953  -0.0009492   0.0320629
           OY11          0.0073942   0.0342190   0.0163380   0.0061107  -0.0350070
           OZ11          0.0062489  -0.0195128   0.0088635  -0.0027033  -0.0126756
           H8X12         0.0001101  -0.0012326  -0.0008709  -0.0016518   0.0038484
           H8Y12         0.0011284   0.0009149  -0.0010830   0.0023481   0.0007321
           H8Z12         0.0006437   0.0017103   0.0033251   0.0008418  -0.0066458
                             OX11        OY11        OZ11        H8X12       H8Y12   
           OX11          0.3436078
           OY11         -0.2931159   0.4948804
           OZ11         -0.1730495   0.0127765   0.3834782
           H8X12        -0.2153753   0.2721252   0.0650409   0.2276108
           H8Y12         0.2954178  -0.4069411  -0.0601153  -0.2877558   0.3996764
           H8Z12         0.0365553  -0.0157090  -0.0538831  -0.0677291   0.0538814
                             H8Z12   
           H8Z12         0.0654832


 Atomic Masses
     1-  10   12.000000   12.000000    1.007825    1.007825    1.007825    1.007825   12.000000    1.007825    1.007825    1.007825
    11-  12   15.994910    1.007825

 Mass weighted Second Derivative Matrix
                             C1X1        C1Y1        C1Z1        C2X2        C2Y2    
           C1X1          0.0508453
           C1Y1         -0.0000758   0.0519669
           C1Z1          0.0034106   0.0001045   0.0463900
           C2X2         -0.0101988  -0.0001390   0.0041292   0.0505610
           C2Y2         -0.0001650  -0.0078568   0.0001521   0.0003565   0.0549229
           C2Z2          0.0041898   0.0001258  -0.0166237  -0.0010561  -0.0002816
           H1X3         -0.0393678  -0.0351673   0.0050290  -0.0025162  -0.0040830
           H1Y3         -0.0353839  -0.0713312   0.0078967   0.0003447   0.0003260
           H1Z3          0.0048034   0.0073708  -0.0175732   0.0052890   0.0089326
           H2X4         -0.0554153  -0.0016176  -0.0408240   0.0043208   0.0002276
           H2Y4         -0.0016127  -0.0162738  -0.0016935   0.0001847  -0.0002652
           H2Z4         -0.0400203  -0.0016632  -0.0575498  -0.0077039  -0.0003461
           H3X5         -0.0451100   0.0373613   0.0054550  -0.0027833   0.0038300
           H3Y5          0.0376072  -0.0658925  -0.0072874  -0.0005376   0.0005725
           H3Z5          0.0051556  -0.0067582  -0.0174810   0.0059470  -0.0084394
           H4X6         -0.0026807   0.0036129   0.0003151  -0.0452406   0.0356672
           H4Y6         -0.0004392   0.0004438   0.0001884   0.0363490  -0.0640850
           H4Z6          0.0064309  -0.0084868  -0.0008702   0.0037577  -0.0048898
           C3X7          0.0015488   0.0000665   0.0011618  -0.0142694  -0.0002527
           C3Y7          0.0000384  -0.0000109   0.0000340  -0.0001726  -0.0083650
           C3Z7         -0.0014787  -0.0000776  -0.0023079  -0.0063113  -0.0002680
           H5X8         -0.0022873  -0.0036455   0.0002721  -0.0404336  -0.0349636
           H5Y8          0.0004284   0.0005414  -0.0001341  -0.0358270  -0.0717126
           H5Z8          0.0055804   0.0088297  -0.0008680   0.0045246   0.0065657
           H6X9          0.0000010  -0.0000177   0.0002543  -0.0037463  -0.0071723
           H6Y9         -0.0000767  -0.0000472  -0.0000128   0.0001267  -0.0001350
           H6Z9         -0.0000044  -0.0001553   0.0005461  -0.0043676  -0.0070019
           H7X10         0.0001064  -0.0000138   0.0002971  -0.0043648   0.0064949
           H7Y10         0.0000562  -0.0000079   0.0000526  -0.0005485   0.0007010
           H7Z10        -0.0000305   0.0001824   0.0005141  -0.0048794   0.0067084
           OX11         -0.0001737  -0.0000066  -0.0001631   0.0009767   0.0001822
           OY11          0.0000140   0.0000883  -0.0000141   0.0000418   0.0002242
           OZ11         -0.0007679  -0.0000060  -0.0003508   0.0021148   0.0001243
           H8X12        -0.0001547   0.0000256  -0.0001749   0.0008363  -0.0005152
           H8Y12         0.0000633   0.0000457   0.0000435  -0.0004134   0.0001620
           H8Z12         0.0000202   0.0001775  -0.0000696   0.0001814  -0.0006529
                             C2Z2        H1X3        H1Y3        H1Z3        H2X4    
           C2Z2          0.0448182
           H1X3          0.0003306   0.1430626
           H1Y3          0.0000028   0.1366863   0.2647879
           H1Z3         -0.0005987  -0.0214675  -0.0293336   0.0628390
           H2X4          0.0043983  -0.0134905   0.0001597  -0.0129900   0.2046259
           H2Y4          0.0001773  -0.0217435   0.0003692  -0.0234019   0.0062574
           H2Z4         -0.0066092   0.0036391  -0.0011299   0.0041786   0.1517253
           H3X5          0.0003168   0.0146429  -0.0159831  -0.0026687  -0.0150558
           H3Y5          0.0000417   0.0188289  -0.0232453  -0.0028530  -0.0014767
           H3Z5         -0.0006725  -0.0029694   0.0027573  -0.0002642  -0.0147918
           H4X6          0.0035619  -0.0001200  -0.0002079  -0.0005413   0.0009164
           H4Y6         -0.0051073   0.0002565   0.0010213  -0.0006470  -0.0001129
           H4Z6         -0.0172039  -0.0005387   0.0007114   0.0016255  -0.0010923
           C3X7         -0.0051195  -0.0000271  -0.0001969   0.0003221  -0.0007578
           C3Y7         -0.0004404   0.0000484  -0.0001250   0.0005059  -0.0000190
           C3Z7         -0.0124470  -0.0003054  -0.0001244   0.0003923   0.0006543
           H5X8          0.0039524  -0.0005042   0.0001337   0.0030299   0.0008125
           H5Y8          0.0063140   0.0005969   0.0017472  -0.0003488   0.0001158
           H5Z8         -0.0173068   0.0035036  -0.0003752  -0.0067450  -0.0011074
           H6X9         -0.0000164   0.0008009   0.0005119  -0.0006193   0.0002666
           H6Y9          0.0004339   0.0003098   0.0005041  -0.0006228   0.0003034
           H6Z9          0.0007858   0.0002684   0.0004350  -0.0005087   0.0000882
           H7X10         0.0000820   0.0000623  -0.0000849  -0.0001083   0.0002174
           H7Y10        -0.0001100   0.0000771  -0.0000224  -0.0000906  -0.0002769
           H7Z10         0.0005899   0.0000307  -0.0000246  -0.0000518   0.0001260
           OX11         -0.0013746   0.0000707   0.0001198  -0.0001963   0.0001495
           OY11          0.0000304   0.0000970   0.0000908  -0.0002068  -0.0000163
           OZ11         -0.0034263   0.0000367   0.0000594   0.0000564   0.0003892
           H8X12        -0.0002973  -0.0001161  -0.0001065   0.0002107   0.0000351
           H8Y12         0.0001838  -0.0001270  -0.0000801   0.0001188  -0.0000432
           H8Z12         0.0003267  -0.0000525  -0.0001062   0.0000524  -0.0000748
                             H2Y4        H2Z4        H3X5        H3Y5        H3Z5    
           H2Y4          0.0534499
           H2Z4          0.0063092   0.2158849
           H3X5          0.0204981   0.0034344   0.1652297
           H3Y5          0.0021415   0.0014108  -0.1448714   0.2434956
           H3Z5          0.0223224   0.0040549  -0.0230256   0.0267582   0.0625910
           H4X6         -0.0004414   0.0000896  -0.0004804  -0.0003440   0.0032272
           H4Y6          0.0000036  -0.0008437  -0.0005565   0.0017064   0.0001962
           H4Z6         -0.0002239   0.0013061   0.0035829   0.0006286  -0.0068706
           C3X7         -0.0000167   0.0020104  -0.0000208   0.0001792   0.0003360
           C3Y7         -0.0000075   0.0000677  -0.0000623  -0.0000958  -0.0004520
           C3Z7          0.0000002  -0.0007112  -0.0002972   0.0001011   0.0004115
           H5X8          0.0004895   0.0000418  -0.0001066   0.0000791  -0.0005666
           H5Y8          0.0000210   0.0008456  -0.0003154   0.0009273   0.0005855
           H5Z8          0.0001354   0.0012668  -0.0004646  -0.0007017   0.0016395
           H6X9          0.0004625  -0.0000911   0.0000757   0.0000685  -0.0001174
           H6Y9          0.0002762  -0.0003145  -0.0000595   0.0000026   0.0000873
           H6Z9          0.0002302   0.0003054   0.0000437   0.0000265  -0.0000307
           H7X10        -0.0004245   0.0000182   0.0007967  -0.0003765  -0.0006272
           H7Y10         0.0002177   0.0002649  -0.0002208   0.0004146   0.0005580
           H7Z10        -0.0002377   0.0002910   0.0003304  -0.0004770  -0.0005408
           OX11         -0.0000183  -0.0002318   0.0000858  -0.0001151  -0.0001577
           OY11          0.0001516  -0.0000021  -0.0000984   0.0000807   0.0001544
           OZ11         -0.0000007  -0.0009148   0.0000538  -0.0000854   0.0000581
           H8X12        -0.0000404  -0.0001925  -0.0001104   0.0000191   0.0000287
           H8Y12         0.0000128   0.0001658  -0.0000203  -0.0000388   0.0001205
           H8Z12         0.0001002   0.0001994  -0.0003379   0.0002009   0.0004110
                             H4X6        H4Y6        H4Z6        C3X7        C3Y7    
           H4X6          0.1686197
           H4Y6         -0.1403659   0.2360498
           H4Z6         -0.0141284   0.0196177   0.0653123
           C3X7         -0.0052776  -0.0003029  -0.0054614   0.0521391
           C3Y7          0.0070068   0.0002493   0.0071767  -0.0024741   0.0582147
           C3Z7          0.0012857  -0.0005501   0.0004875  -0.0015568   0.0000595
           H5X8          0.0139619   0.0188762  -0.0025057  -0.0047924  -0.0073284
           H5Y8         -0.0149677  -0.0240633   0.0023891  -0.0002376  -0.0003463
           H5Z8         -0.0022139  -0.0027224   0.0002098  -0.0049743  -0.0074240
           H6X9          0.0006633   0.0004201   0.0013091  -0.0399908  -0.0319392
           H6Y9         -0.0005974   0.0013089  -0.0005121  -0.0330416  -0.0714386
           H6Z9          0.0006932   0.0008883   0.0009912   0.0008216   0.0006551
           H7X10        -0.0030372  -0.0002338  -0.0041501  -0.0460048   0.0364869
           H7Y10        -0.0007680   0.0019417  -0.0004040   0.0388195  -0.0699436
           H7Z10        -0.0045147  -0.0004451  -0.0043544  -0.0002344   0.0000303
           OX11          0.0006648  -0.0004615   0.0002475  -0.0088538  -0.0001394
           OY11         -0.0005317   0.0002377  -0.0001133   0.0012805  -0.0078696
           OZ11          0.0001936   0.0004612   0.0008311   0.0044662   0.0029975
           H8X12         0.0003979   0.0006884   0.0002252  -0.0038754   0.0053623
           H8Y12         0.0000916  -0.0001733  -0.0003618  -0.0011250   0.0010835
           H8Z12        -0.0011977   0.0009902  -0.0008459   0.0084160  -0.0113045
                             C3Z7        H5X8        H5Y8        H5Z8        H6X9    
           C3Z7          0.0454654
           H5X8          0.0011258   0.1496767
           H5Y8          0.0005177   0.1363378   0.2644092
           H5Z8          0.0005806  -0.0158007  -0.0249528   0.0648251
           H6X9          0.0005937  -0.0032465  -0.0001445  -0.0042546   0.1483566
           H6Y9          0.0018422   0.0000041   0.0019339  -0.0001391   0.1313939
           H6Z9         -0.0171354  -0.0045524  -0.0000213  -0.0044344  -0.0119970
           H7X10         0.0015270   0.0005485  -0.0002407   0.0010123   0.0147115
           H7Y10        -0.0028710   0.0003287   0.0012277   0.0005373   0.0174766
           H7Z10        -0.0165254   0.0009118  -0.0006113   0.0010451  -0.0014605
           OX11          0.0068298   0.0007420   0.0004820   0.0004463  -0.0026097
           OY11          0.0002270   0.0005689   0.0002495   0.0002551  -0.0034719
           OZ11         -0.0179188   0.0002899  -0.0002787   0.0007593   0.0036716
           H8X12         0.0004597  -0.0001477  -0.0003353  -0.0001570  -0.0003147
           H8Y12         0.0011672  -0.0000019  -0.0004173  -0.0003040  -0.0013373
           H8Z12        -0.0020854  -0.0001752   0.0001132  -0.0001210  -0.0002656
                             H6Y9        H6Z9        H7X10       H7Y10       H7Z10   
           H6Y9          0.2585666
           H6Z9         -0.0133314   0.0735969
           H7X10        -0.0157536  -0.0015112   0.1739979
           H7Y10        -0.0239123  -0.0006523  -0.1462889   0.2506974
           H7Z10         0.0001837   0.0022768  -0.0133051   0.0117386   0.0737188
           OX11         -0.0004689   0.0076412  -0.0032616  -0.0002364   0.0079858
           OY11          0.0018417   0.0085228   0.0040693   0.0015220  -0.0087191
           OZ11          0.0015564  -0.0048600   0.0022076  -0.0006733  -0.0031571
           H8X12         0.0001093  -0.0012231  -0.0008642  -0.0016389   0.0038186
           H8Y12         0.0011197   0.0009078  -0.0010746   0.0023298   0.0007264
           H8Z12         0.0006387   0.0016970   0.0032993   0.0008352  -0.0065942
                             OX11        OY11        OZ11        H8X12       H8Y12   
           OX11          0.0214823
           OY11         -0.0183256   0.0309399
           OZ11         -0.0108190   0.0007988   0.0239750
           H8X12        -0.0536429   0.0677775   0.0161996   0.2258436
           H8Y12         0.0735789  -0.1013557  -0.0149728  -0.2855216   0.3965732
           H8Z12         0.0091047  -0.0039126  -0.0134205  -0.0672032   0.0534631
                             H8Z12   
           H8Z12         0.0649748


 Mass Weighted 2nd Derivative Matrix Eigenvalues
     1-  10    0.000000    0.000000    0.000000    0.000000    0.000000    0.000000    0.000778    0.002271    0.003093    0.004186
    11-  20    0.009134    0.025084    0.034315    0.034667    0.045642    0.052553    0.053734    0.057631    0.068929    0.076697
    21-  30    0.079359    0.085673    0.089588    0.092723    0.097968    0.098744    0.099821    0.102315    0.371918    0.373827
    31-  36    0.377418    0.384857    0.390774    0.393802    0.395322    0.660083

 Mass Weighted 2nd Derivative Matrix Eigenvectors
              1             2             3             4             5             6             7             8
    1    0.00000000    0.00000000    0.00000000    0.00000000    0.00000000    0.72529522    0.01296966   -0.02122723
    2   -0.13478592    0.08828768    0.17363318    0.62012171    0.34473624   -0.00064349   -0.32876145    0.08295161
    3    0.35029809    0.09458171   -0.00974635    0.17527157   -0.19483878    0.03183195   -0.00073956   -0.00608978
    4    0.12633717    0.02480400    0.02003373   -0.08557490    0.19279318    0.40926243   -0.01202721    0.03006140
    5   -0.19109108    0.52507744   -0.08296536    0.24704641    0.13666634    0.00239353    0.35211975   -0.26758300
    6    0.40933318    0.11448253   -0.00498080    0.12765333   -0.10701659   -0.11840176    0.00018553    0.01037930
    7   -0.03894221    0.13382670   -0.15230701   -0.01515748   -0.01180117    0.22072420    0.16096894    0.37274480
    8   -0.01685099   -0.06582336    0.14642326    0.20104037    0.10961192   -0.00097991   -0.20772122   -0.18504533
    9    0.08012091    0.00413079   -0.02721837    0.12387061   -0.04384801    0.04847374   -0.06229467    0.24557104
   10   -0.01911627   -0.01092690    0.00437871    0.01505463   -0.03158682    0.26241730    0.00011906   -0.03450831
   11   -0.07365227    0.12109440   -0.09639323    0.21938881    0.12670887    0.00081487   -0.01973910    0.56951025
   12    0.12099463    0.03400966   -0.00120455    0.03496606   -0.02758310   -0.04030957    0.00025142    0.00361373
   13    0.02991276   -0.12882468    0.14387726    0.01928459    0.00030272    0.21808695   -0.14504349   -0.37028797
   14   -0.01415201   -0.07593822    0.15803892    0.20208711    0.10990293   -0.00107136   -0.21976310   -0.21525441
   15    0.09029417    0.03970468    0.01895238    0.00398878   -0.11763869    0.05299750    0.06231062   -0.25836434
   16    0.00587451    0.13495188   -0.13727376   -0.04326128    0.05400677    0.11332774    0.05197024   -0.05060940
   17   -0.08127316    0.25561683   -0.13589160    0.05158933    0.03108466    0.00160307    0.15600567   -0.12732219
   18    0.13035476    0.02113121   -0.02306945    0.08312044    0.03069721   -0.07929947   -0.08397955    0.03090190
   19    0.22146970    0.07879263   -0.00135486   -0.16038028    0.34985459    0.14960261   -0.01691366    0.01896042
   20   -0.02736852    0.08178278    0.61088585    0.04563394    0.00196887   -0.00230220    0.42632295    0.03876653
   21    0.31795239    0.08340082   -0.01274838    0.20232464   -0.24219051    0.11388376    0.00159270    0.00847092
   22    0.07464626   -0.12607698    0.15720448   -0.00924400    0.06653539    0.10989217   -0.05901726    0.07122666
   23   -0.07827431    0.24492574   -0.12301994    0.05190041    0.03091804    0.00150420    0.15030928   -0.12254867
   24    0.14031596    0.05645125    0.02282691   -0.03595679   -0.04290447   -0.07440857    0.08552433   -0.01957775
   25    0.02687876    0.15676118   -0.15221103   -0.06268090    0.09201338    0.04992437   -0.12436851   -0.06084185
   26    0.01549321   -0.06957102    0.27819649    0.03084083    0.00800263   -0.00148831    0.21342768    0.05285571
   27    0.07023118    0.00077736   -0.02804434    0.13191580   -0.05850605    0.07362278    0.09659652   -0.03421921
   28    0.09584904   -0.10512486    0.14322437   -0.02853499    0.10454326    0.04654255    0.10721132    0.06769586
   29    0.01779293   -0.07763367    0.28805874    0.03086783    0.00775318   -0.00156345    0.21892772    0.05657527
   30    0.08068757    0.03635554    0.01802068    0.01212226   -0.13162340    0.07733981   -0.09455566    0.04352664
   31    0.39776930    0.08559369    0.05532976   -0.27163198    0.60952877   -0.16226079    0.04430522    0.01336195
   32   -0.09104559    0.55630802    0.43431059   -0.34233046   -0.21805264    0.00055221   -0.41016210    0.13428786
   33    0.43092019    0.12167732   -0.00410577    0.16865084   -0.19534936   -0.02731649   -0.02073989    0.00916545
   34    0.07384243    0.13431716   -0.11205646   -0.08519546    0.15302134   -0.04810933   -0.11323307   -0.14455995
   35   -0.04382506    0.22565667    0.01829545   -0.10560908   -0.06363569    0.00088630   -0.20912256   -0.06042231
   36    0.11747421    0.01961952   -0.02011614    0.08367679    0.00370582   -0.04384288    0.07518664   -0.09199692
              9            10            11            12            13            14            15            16
    1   -0.28386265   -0.09833772    0.03900545   -0.00114363    0.10834238   -0.01693100    0.30518796   -0.19179479
    2   -0.00760035   -0.01871994    0.00367541    0.06131718   -0.03947881   -0.19064702    0.02404493    0.07430554
    3   -0.19983842   -0.14862263   -0.48525165   -0.00541663    0.33670436   -0.09135818   -0.37951193   -0.04419717
    4    0.40667886    0.19378897    0.05016397   -0.01275162    0.35511235   -0.08392307   -0.10472521    0.33671406
    5    0.06015860   -0.06779320    0.00849377    0.23602615    0.00032978   -0.03494002   -0.01616238   -0.12264489
    6    0.12029370   -0.00018837   -0.28417355   -0.00232398    0.00866933    0.00594343    0.59895017   -0.00078862
    7   -0.15096151    0.00280706   -0.00971413    0.15171032   -0.11508256   -0.15218851    0.07564301    0.07911605
    8    0.01985379   -0.02911937    0.00512449   -0.11784832    0.04985339    0.10644577   -0.00209795   -0.04957247
    9   -0.20232574   -0.07075803   -0.19927642   -0.21833402   -0.10886561    0.35477270   -0.23968893    0.10262199
   10   -0.22895307   -0.10123307   -0.06040860    0.00518828   -0.33231635    0.07883262    0.00915955    0.14354490
   11   -0.06515105    0.05881046   -0.00469286   -0.10495839    0.02969459    0.18138902   -0.00714306   -0.04438745
   12    0.08226844    0.02225419   -0.07477581   -0.00208303    0.43951553   -0.11492504   -0.03919501   -0.19144147
   13   -0.07384468   -0.08474539   -0.00287933   -0.14092508   -0.03510121    0.18350860    0.05970085   -0.02372264
   14    0.01904556   -0.03472255   -0.00018446   -0.12787617   -0.00188729    0.13235971   -0.00245107   -0.00136639
   15   -0.14938662   -0.13439425   -0.19839021    0.21617791   -0.25476596   -0.26638628   -0.21255699    0.26120859
   16    0.14167500   -0.00149819    0.01014901   -0.43158591    0.07752937   -0.04758421   -0.01059146    0.24034049
   17    0.03288536   -0.07000177    0.00647142   -0.28735999    0.00441393    0.00455180    0.00224227    0.04169602
   18    0.08796605    0.01474155   -0.14557385    0.06817824   -0.21790445   -0.28678578    0.27646078    0.29398185
   19    0.32956822    0.08241948   -0.22267348    0.00279272   -0.40325866    0.09126077   -0.25843537   -0.13717141
   20   -0.03593083    0.13069486   -0.03253256    0.09286914    0.04952208    0.27143576   -0.01210838    0.11857679
   21    0.19169301    0.10674126    0.21906137    0.00323559   -0.14714831    0.03055520    0.02457358   -0.33679571
   22    0.09317334    0.11348730   -0.01706759    0.44399057    0.08202056    0.01789672   -0.02932892    0.03372829
   23    0.04033772   -0.05344315    0.01248226   -0.24628000    0.00491036    0.01093603    0.00253916    0.02645984
   24    0.08780906    0.03093091   -0.15692617   -0.06939762   -0.07497318    0.38589173    0.25583682    0.10407053
   25    0.12292200   -0.02399499   -0.05523310    0.27213785   -0.02401058    0.35662711   -0.08675553    0.06318995
   26   -0.02333789    0.07542119   -0.01789014   -0.15076961   -0.05220605   -0.14039040   -0.00347063   -0.05494685
   27    0.12188941    0.09636548    0.05778330    0.10005173   -0.08439936    0.11184397   -0.08279676   -0.25304009
   28    0.07435482    0.08296287   -0.06800878   -0.25862467   -0.20597749   -0.28983074   -0.09121654   -0.14812513
   29   -0.03244255    0.08222248   -0.01160717   -0.16972267   -0.05149870   -0.16548210   -0.01038648   -0.06714691
   30    0.12952373    0.05142868    0.07429698   -0.10381870   -0.09947121   -0.06700975   -0.04836160    0.15837700
   31   -0.30156926   -0.30504862    0.18424897    0.00782009    0.09119965   -0.01847557    0.06885939   -0.07127116
   32    0.02567835   -0.14951951    0.03924617   -0.02620471    0.00786761   -0.05750692    0.01458130    0.01472161
   33   -0.07604397   -0.05455687    0.60002044    0.00107546   -0.09661214   -0.00822187   -0.19319091    0.09979803
   34   -0.33798216    0.61370378   -0.07017712   -0.03473441   -0.01809780   -0.04055559   -0.00089163   -0.13087633
   35   -0.15086354    0.41403500   -0.07578628   -0.03726816   -0.05041684   -0.05892021   -0.02273961   -0.15174710
   36   -0.24178174    0.35194252    0.15159681    0.02048622    0.10174646    0.10465268    0.01794322    0.44403113
             17            18            19            20            21            22            23            24
    1   -0.10821915    0.22207484    0.05343255    0.08488863    0.16698421   -0.09179360    0.15000428   -0.04304259
    2    0.04538255    0.12015220   -0.33740319    0.14709887   -0.02728085    0.03678513    0.01484030   -0.00989626
    3    0.00170852    0.06676098    0.01630042    0.03760365    0.04252598    0.07085563   -0.41154404   -0.07598366
    4    0.01126215   -0.36243410   -0.08287312   -0.09993522   -0.13565251   -0.00533668    0.00851112   -0.02183223
    5   -0.09429001   -0.20980177    0.38922421    0.09826546   -0.09608770   -0.03157026   -0.00199792   -0.00126948
    6   -0.09773297    0.00687129   -0.01486659   -0.17772207   -0.33922017    0.20144328    0.13851065    0.30501301
    7    0.02815470    0.03661100   -0.19014042    0.03166772   -0.08644466    0.08179178   -0.06132543    0.07640937
    8   -0.02385873    0.00035948    0.07259518    0.01607313    0.07021694   -0.07548877    0.14911647   -0.05034561
    9    0.02054599   -0.29274573    0.19338317   -0.11641211    0.01413364   -0.10894891    0.46151128    0.03240635
   10    0.04434858   -0.13713289   -0.02535227   -0.05845909   -0.11705728    0.12508701   -0.37201677   -0.03137627
   11   -0.02946092   -0.06743386    0.17820952   -0.04785718   -0.01100397   -0.04498055   -0.02657615    0.01726786
   12   -0.07029552    0.20683154    0.03114633    0.09297192    0.17068139   -0.12711676    0.29364193   -0.00207111
   13   -0.03361854   -0.09057525    0.17013953   -0.10011672   -0.05537386    0.02602236   -0.06186465    0.08505731
   14   -0.00892232   -0.06751240    0.07027629   -0.05615940   -0.07288900    0.06206412   -0.15560150    0.06073017
   15    0.11640241   -0.09930391   -0.25613737    0.06259605   -0.04426914   -0.11338920    0.45854932    0.04761164
   16    0.04339179    0.02216778   -0.20333236   -0.11790637    0.11316422   -0.00262239   -0.05611865    0.01720677
   17    0.01252890    0.04705943   -0.06752116   -0.01941968    0.01944386    0.01441266   -0.02452690    0.04577361
   18   -0.03645322   -0.03157862    0.29474766   -0.28960991    0.55988296   -0.26007134   -0.11922510   -0.21619881
   19   -0.19010711    0.37982350    0.08147298    0.00647872   -0.06144531    0.11944029    0.05111964   -0.12402158
   20    0.07657763    0.22741645   -0.15514195   -0.27022659    0.03204352   -0.22985274   -0.05736419    0.06466798
   21    0.56161468   -0.06232488   -0.03396937   -0.06880313   -0.11917356   -0.08469382    0.02113403   -0.42982611
   22   -0.10143814   -0.25467804    0.17279141    0.15090108   -0.04671938   -0.02232744   -0.05498946    0.01382157
   23    0.02232022    0.01737225   -0.05250883   -0.00897287    0.00911379   -0.02276641    0.01627881   -0.04651404
   24   -0.16597834   -0.19146538   -0.26770575    0.64541694    0.17165235   -0.15896989   -0.08363741   -0.23679751
   25    0.06065912    0.25983875   -0.08275875   -0.13060621    0.09208954   -0.06947610   -0.00407295    0.13344973
   26   -0.04887759   -0.05487391    0.01794484    0.01104876   -0.01444583    0.02698829   -0.00232827   -0.05334662
   27    0.10498819   -0.23879479   -0.18814350   -0.04250819    0.59899361    0.40465677    0.00665696    0.41623015
   28   -0.09896805   -0.04208244    0.14817699    0.21099287    0.00343145    0.14500975    0.05246758    0.06034571
   29   -0.03324349   -0.06988862    0.03191858    0.04945446    0.02102898    0.03619571    0.01822283    0.04601796
   30    0.35238812    0.18794712    0.28158840    0.38003114   -0.03670642   -0.36072857   -0.14311506    0.56200827
   31    0.26494064   -0.13503614   -0.02177425    0.02347845    0.05639742   -0.04917394   -0.03087605    0.05921171
   32    0.03060033   -0.04734978    0.05118972    0.05225643    0.07892362    0.23436718    0.05496565   -0.06454501
   33   -0.52788619    0.03982623   -0.06309776   -0.04908684   -0.01501525   -0.10807546   -0.03601051    0.06527271
   34   -0.00745066   -0.08249281   -0.08232416   -0.05044237   -0.02385567   -0.16456897   -0.04244787    0.06100886
   35   -0.10787132   -0.09183216   -0.09832237   -0.06655633   -0.02075262   -0.15495721   -0.03992969    0.05293521
   36    0.17482090    0.26143217    0.27475841    0.18397707    0.06045411    0.50776444    0.13828783   -0.17034808
             25            26            27            28            29            30            31            32
    1    0.11893573   -0.00015223   -0.10354444   -0.03306991    0.02189476    0.00168783   -0.11052268    0.02470668
    2   -0.00540911   -0.17040359   -0.00393889   -0.00308946   -0.00393521    0.02709226   -0.00405858    0.13274008
    3    0.01282160   -0.00084784   -0.05577156   -0.00758141   -0.00911721   -0.03800091    0.13068405    0.01850106
    4   -0.16038140    0.00780669   -0.23102477   -0.08702546   -0.06421532    0.19173348    0.03895991   -0.09371296
    5   -0.00596076   -0.06875089   -0.00513042   -0.00354961    0.08479026   -0.11147695   -0.01428450   -0.23283163
    6    0.08597757   -0.00664649   -0.07039434   -0.02014812    0.01259667   -0.02503521   -0.01002619    0.01837538
    7   -0.38198284   -0.18576846    0.35699317    0.08446579   -0.03288383   -0.09443826    0.32235726   -0.17096620
    8    0.25972479    0.02611000   -0.23649771   -0.06122343   -0.05371914   -0.14347891    0.50551193   -0.25909464
    9   -0.02281789   -0.43671578    0.04696248   -0.00464001    0.00602600    0.01596917   -0.06823224    0.03642264
   10    0.17304937   -0.03880651   -0.22326326   -0.03804202    0.01044581    0.11601520   -0.30408453   -0.07637248
   11    0.04161337    0.69379362   -0.01693157    0.00178596    0.00071569    0.00779138   -0.01243350    0.00656502
   12   -0.15025955    0.00849164    0.18284472    0.02734741    0.00715519    0.10971318   -0.30441915   -0.07662010
   13   -0.33893059    0.22366898    0.33374796    0.08218611   -0.05202004   -0.03027180    0.36011084    0.16535116
   14   -0.28233246    0.07470147    0.26292374    0.06833727    0.06980799    0.04105171   -0.47880992   -0.20603129
   15    0.01978589    0.43890433    0.03210417   -0.00256832    0.00960427    0.00350418   -0.06510818   -0.02772881
   16    0.35586916    0.01157187    0.30802673    0.15176356    0.23517441   -0.49930379   -0.08769268   -0.12523298
   17    0.31413356   -0.01207436    0.28037162    0.13106851   -0.29990133    0.64517625    0.11209611    0.14095175
   18   -0.10038156   -0.03128184    0.02141698    0.01609510   -0.03421185    0.06730438    0.01396565    0.01616025
   19    0.01178330    0.00780393    0.10990942   -0.25497548   -0.15886462   -0.07325766   -0.03099073   -0.04772990
   20    0.00184872   -0.00380468   -0.00102016   -0.00722289   -0.17381398   -0.04488763   -0.03461636    0.02722210
   21    0.01344015    0.00505302    0.06979199    0.09616976    0.01239186   -0.00145697   -0.00092828    0.00622413
   22    0.38466036   -0.04180616    0.33719709    0.16126584   -0.00957694   -0.15333303   -0.04035093    0.44517624
   23   -0.29188375    0.01065626   -0.25939474   -0.11964422   -0.00173734   -0.25870794   -0.06319918    0.66800997
   24   -0.09918573    0.04089233    0.01540999    0.00936750    0.00224557    0.02822386    0.00975888   -0.08001039
   25   -0.05846626   -0.00092156   -0.18453445    0.49246299    0.47537177    0.17330446    0.09162930    0.03743718
   26    0.03962015   -0.00064025    0.13750698   -0.37507592    0.72390121    0.26555479    0.13766200    0.06286710
   27    0.00164026    0.03164335   -0.01455442   -0.15422370   -0.05476320   -0.01684792   -0.00845926   -0.00419423
   28   -0.05776477   -0.00227479   -0.16912364    0.45972456    0.07598894    0.08361929    0.01261400    0.12539766
   29   -0.04500277   -0.00480547   -0.14966214    0.41053256   -0.12269699   -0.11570213   -0.01929355   -0.16467056
   30    0.00677684   -0.04651531   -0.01904881   -0.15364686   -0.01112796   -0.00908639   -0.00059221   -0.01392389
   31    0.00467947   -0.00266299    0.00364007   -0.02278645   -0.00176933   -0.00225980    0.00002095    0.00099623
   32   -0.00207217    0.01447369    0.00437484   -0.00152315    0.00119055    0.00042445    0.00021457    0.00026557
   33   -0.00830130   -0.00535572   -0.01924629    0.00622331    0.00470422    0.00457705    0.00241893    0.00008198
   34    0.00727725   -0.00839568    0.00167228   -0.00882024   -0.00123632   -0.00122946   -0.00079277   -0.00194632
   35    0.00523618   -0.00704018   -0.00092972   -0.00188033   -0.00034636    0.00269450    0.00035463    0.00178998
   36   -0.00978354    0.02434154    0.00606378    0.00131466    0.00156522    0.00552703    0.00030787    0.00084394
             33            34            35            36
    1    0.02544448   -0.25967491    0.02250813    0.00020742
    2   -0.25206399   -0.01806564   -0.10776523    0.00007876
    3    0.00872664   -0.15099362    0.00540197    0.00010062
    4   -0.01934498   -0.03266636   -0.01401395   -0.00139968
    5   -0.08592521   -0.02763022   -0.11746280    0.00070357
    6    0.00523947    0.00533249    0.00270558    0.00043042
    7    0.29769696    0.16090131    0.11592090   -0.00014762
    8    0.44140228    0.27115200    0.16990352   -0.00012538
    9   -0.06449045   -0.04703232   -0.02652475   -0.00001432
   10   -0.03259333    0.57845208   -0.02627210    0.00003905
   11   -0.01789641    0.02357053   -0.00595750    0.00004960
   12   -0.03524387    0.60411201   -0.02539310    0.00061458
   13   -0.35191440    0.16046004   -0.16672684    0.00006955
   14    0.44714277   -0.23178337    0.21270663   -0.00009645
   15    0.06673781   -0.04118921    0.03535812    0.00013694
   16   -0.07037708    0.02195860   -0.12423239    0.00030539
   17    0.08587434   -0.02915097    0.15155877   -0.00155942
   18    0.01322526   -0.00422487    0.01550117   -0.00098420
   19   -0.07651670   -0.00402725    0.10912759    0.00248744
   20    0.11311440   -0.00658636   -0.22919597   -0.00565975
   21    0.00616103    0.00259090   -0.00788300    0.00307984
   22    0.13913379    0.08270529    0.16716300    0.00017504
   23    0.20899642    0.12403032    0.24807163    0.00000670
   24   -0.02877864   -0.01623010   -0.02903757   -0.00025844
   25   -0.02017273    0.01569247    0.11274915   -0.00089902
   26   -0.02216043    0.02293313    0.15539234    0.00113072
   27    0.00231905   -0.00053138   -0.00764168    0.00213471
   28    0.28043645    0.00079762   -0.48223511   -0.00605432
   29   -0.36614529   -0.00106701    0.62482200    0.00948983
   30   -0.02765370    0.00051942    0.04070354    0.00094180
   31    0.00103162    0.00045332   -0.00154887    0.14504844
   32   -0.00167385    0.00033713    0.00533831   -0.19084043
   33    0.00133836   -0.00037101   -0.00237198   -0.03853522
   34   -0.00333595   -0.00011601    0.00393492   -0.57580233
   35    0.00541373   -0.00062124   -0.00971634    0.76820605
   36   -0.00089849   -0.00026343    0.00570894    0.13848601

   Low Vibration      Wavenumber
        Nr             [1/cm] 
        1                0.00
        2                0.00
        3                0.00
        4                0.00
        5                0.00
        6                0.00

     Vibration        Wavenumber
        Nr             [1/cm] 
        1              143.36
        2              244.98
        3              285.87
        4              332.57
        5              491.28
        6              814.15
        7              952.24
        8              957.11
        9             1098.21
       10             1178.43
       11             1191.60
       12             1234.05
       13             1349.60
       14             1423.62
       15             1448.11
       16             1504.62
       17             1538.61
       18             1565.30
       19             1608.96
       20             1615.32
       21             1624.11
       22             1644.27
       23             3134.93
       24             3142.96
       25             3158.02
       26             3189.00
       27             3213.42
       28             3225.84
       29             3232.06
       30             4176.42

 FREQUENCIES * CALCULATION OF NORMAL MODES FOR HF-SCF


 Atomic Coordinates

  Nr  Atom  Charge       X              Y              Z

   1   C1    6.00    0.262603108    0.010079916   -3.710576027
   2   C2    6.00   -0.976775406   -0.038281441   -1.104387501
   3   H1    1.00    1.379879435    1.713397140   -3.975950282
   4   H2    1.00   -1.147473972   -0.048433035   -5.198424477
   5   H3    1.00    1.508655140   -1.602205721   -3.967902938
   6   H4    1.00   -2.257381296    1.564597793   -0.921753093
   7   C3    6.00    0.939503439    0.044789014    1.039399617
   8   H5    1.00   -2.118154212   -1.731759191   -0.890591182
   9   H6    1.00    2.095785561    1.743355532    0.886734928
  10   H7    1.00    2.201596437   -1.563727547    0.916149966
  11   O     8.00   -0.195191596   -0.099826964    3.430092589
  12   H8    1.00   -1.248054994    1.311596591    3.668686638

 Gradient norm at reference geometry: 0.43265D-06

 Normal Modes

                              1 A         2 A         3 A         4 A         5 A  
 Wavenumbers [cm-1]          143.36      244.98      285.87      332.57      491.28
[...]
           H5Y8             0.02223     0.01730    -0.05230    -0.00894     0.00908
           H5Z8            -0.16533    -0.19072    -0.26666     0.64291     0.17098
           H6X9             0.06042     0.25883    -0.08244    -0.13010     0.09173
           H6Y9            -0.04869    -0.05466     0.01788     0.01101    -0.01439
           H6Z9             0.10458    -0.23787    -0.18741    -0.04234     0.59666
           H7X10           -0.09858    -0.04192     0.14760     0.21017     0.00342
           H7Y10           -0.03311    -0.06962     0.03179     0.04926     0.02095
           H7Z10            0.35102     0.18722     0.28049     0.37855    -0.03656
           OX11             0.06625    -0.03376    -0.00544     0.00587     0.01410
           OY11             0.00765    -0.01184     0.01280     0.01307     0.01973
           OZ11            -0.13199     0.00996    -0.01578    -0.01227    -0.00375
           H8X12           -0.00742    -0.08217    -0.08200    -0.05025    -0.02376
           H8Y12           -0.10745    -0.09147    -0.09794    -0.06630    -0.02067
           H8Z12            0.17414     0.26042     0.27369     0.18326     0.06022

                             16 A        17 A        18 A        19 A        20 A  
 Wavenumbers [cm-1]         1504.62     1538.61     1565.30     1608.96     1615.32
 Intensities [km/mol]          0.00        0.00        0.00        0.00        0.00
 Intensities [relative]        0.00        0.00        0.00        0.00        0.00
           C1X1            -0.02650     0.04330    -0.01243     0.03433    -0.00004
           C1Y1             0.01062     0.00428    -0.00286    -0.00156    -0.04919
           C1Z1             0.02045    -0.11880    -0.02193     0.00370    -0.00024
           C2X2            -0.00154     0.00246    -0.00630    -0.04630     0.00225
           C2Y2            -0.00911    -0.00058    -0.00037    -0.00172    -0.01985
           C2Z2             0.05815     0.03998     0.08805     0.02482    -0.00192
           H1X3             0.08147    -0.06109     0.07611    -0.38050    -0.18505
           H1Y3            -0.07520     0.14854    -0.05015     0.25871     0.02601
           H1Z3            -0.10853     0.45972     0.03228    -0.02273    -0.43502
           H2X4             0.12460    -0.37057    -0.03125     0.17238    -0.03866
           H2Y4            -0.04481    -0.02647     0.01720     0.04145     0.69109
           H2Z4            -0.12662     0.29250    -0.00206    -0.14968     0.00846
           H3X5             0.02592    -0.06162     0.08473    -0.33761     0.22280
           H3Y5             0.06182    -0.15500     0.06049    -0.28123     0.07441
           H3Z5            -0.11295     0.45677     0.04743     0.01971     0.43720
           H4X6            -0.00261    -0.05590     0.01714     0.35448     0.01153
           H4Y6             0.01436    -0.02443     0.04560     0.31291    -0.01203
           H4Z6            -0.25906    -0.11876    -0.21536    -0.09999    -0.03116
           C3X7             0.03448     0.01476    -0.03580     0.00340     0.00225
           C3Y7            -0.06635    -0.01656     0.01867     0.00053    -0.00110
           C3Z7            -0.02445     0.00610    -0.12408     0.00388     0.00146
           H5X8            -0.02224    -0.05478     0.01377     0.38316    -0.04164
           H5Y8            -0.02268     0.01622    -0.04633    -0.29075     0.01061
           H5Z8            -0.15835    -0.08331    -0.23588    -0.09880     0.04073
           H6X9            -0.06921    -0.00406     0.13293    -0.05824    -0.00092
           H6Y9             0.02688    -0.00232    -0.05314     0.03947    -0.00064
           H6Z9             0.40308     0.00663     0.41461     0.00163     0.03152
           H7X10            0.14445     0.05226     0.06011    -0.05754    -0.00227
           H7Y10            0.03605     0.01815     0.04584    -0.04483    -0.00479
           H7Z10           -0.35933    -0.14256     0.55982     0.00675    -0.04633
           OX11            -0.01230    -0.00772     0.01481     0.00117    -0.00067
           OY11             0.05860     0.01374    -0.01614    -0.00052     0.00362
           OZ11            -0.02702    -0.00900     0.01632    -0.00208    -0.00134
           H8X12           -0.16393    -0.04228     0.06077     0.00725    -0.00836
           H8Y12           -0.15435    -0.03977     0.05273     0.00522    -0.00701
           H8Z12            0.50579     0.13775    -0.16969    -0.00975     0.02425

                             21 A        22 A        23 A        24 A        25 A  
 Wavenumbers [cm-1]         1624.11     1644.27     3134.93     3142.96     3158.02
 Intensities [km/mol]          0.00        0.00        0.00        0.00        0.00
 Intensities [relative]        0.00        0.00        0.00        0.00        0.00
           C1X1            -0.02989    -0.00955     0.00632     0.00049    -0.03191
           C1Y1            -0.00114    -0.00089    -0.00114     0.00782    -0.00117
           C1Z1            -0.01610    -0.00219    -0.00263    -0.01097     0.03773
           C2X2            -0.06669    -0.02512    -0.01854     0.05535     0.01125
           C2Y2            -0.00148    -0.00102     0.02448    -0.03218    -0.00412
           C2Z2            -0.02032    -0.00582     0.00364    -0.00723    -0.00289
           H1X3             0.35560     0.08414    -0.03276    -0.09407     0.32110
           H1Y3            -0.23558    -0.06099    -0.05351    -0.14292     0.50355
           H1Z3             0.04678    -0.00462     0.00600     0.01591    -0.06797
           H2X4            -0.22239    -0.03789     0.01041     0.11556    -0.30290
           H2Y4            -0.01687     0.00178     0.00071     0.00776    -0.01239
           H2Z4             0.18213     0.02724     0.00713     0.10929    -0.30324
           H3X5             0.33245     0.08187    -0.05182    -0.03015     0.35871
           H3Y5             0.26190     0.06807     0.06954     0.04089    -0.47695
           H3Z5             0.03198    -0.00256     0.00957     0.00349    -0.06485
           H4X6             0.30683     0.15117     0.23426    -0.49736    -0.08735
           H4Y6             0.27928     0.13056    -0.29873     0.64267     0.11166
           H4Z6             0.02133     0.01603    -0.03408     0.06704     0.01391
           C3X7             0.03173    -0.07361    -0.04586    -0.02115    -0.00895
           C3Y7            -0.00029    -0.00209    -0.05018    -0.01296    -0.00999
           C3Z7             0.02015     0.02776     0.00358    -0.00042    -0.00027
           H5X8             0.33589     0.16064    -0.00954    -0.15274    -0.04019
           H5Y8            -0.25839    -0.11918    -0.00173    -0.25770    -0.06295
           H5Z8             0.01535     0.00933     0.00224     0.02811     0.00972
           H6X9            -0.18382     0.49055     0.47352     0.17263     0.09127
           H6Y9             0.13697    -0.37362     0.72109     0.26452     0.13713
           H6Z9            -0.01450    -0.15362    -0.05455    -0.01678    -0.00843
           H7X10           -0.16847     0.45794     0.07569     0.08329     0.01256
           H7Y10           -0.14908     0.40894    -0.12222    -0.11525    -0.01922
           H7Z10           -0.01897    -0.15305    -0.01108    -0.00905    -0.00059
           OX11             0.00091    -0.00570    -0.00044    -0.00057     0.00001
           OY11             0.00109    -0.00038     0.00030     0.00011     0.00005
           OZ11            -0.00481     0.00156     0.00118     0.00114     0.00060
           H8X12            0.00167    -0.00879    -0.00123    -0.00122    -0.00079
           H8Y12           -0.00093    -0.00187    -0.00035     0.00268     0.00035
           H8Z12            0.00604     0.00131     0.00156     0.00551     0.00031

                             26 A        27 A        28 A        29 A        30 A  
 Wavenumbers [cm-1]         3189.00     3213.42     3225.84     3232.06     4176.42
 Intensities [km/mol]          0.00        0.00        0.00        0.00        0.00
 Intensities [relative]        0.00        0.00        0.00        0.00        0.00
           C1X1             0.00713     0.00735    -0.07496     0.00650     0.00006
           C1Y1             0.03832    -0.07276    -0.00522    -0.03111     0.00002
           C1Z1             0.00534     0.00252    -0.04359     0.00156     0.00003
           C2X2            -0.02705    -0.00558    -0.00943    -0.00405    -0.00040
           C2Y2            -0.06721    -0.02480    -0.00798    -0.03391     0.00020
           C2Z2             0.00530     0.00151     0.00154     0.00078     0.00012
           H1X3            -0.17030     0.29654     0.16028     0.11547    -0.00015
           H1Y3            -0.25809     0.43969     0.27010     0.16924    -0.00012
           H1Z3             0.03628    -0.06424    -0.04685    -0.02642    -0.00001
           H2X4            -0.07608    -0.03247     0.57620    -0.02617     0.00004
           H2Y4             0.00654    -0.01783     0.02348    -0.00593     0.00005
           H2Z4            -0.07632    -0.03511     0.60176    -0.02529     0.00061
           H3X5             0.16471    -0.35055     0.15984    -0.16608     0.00007
           H3Y5            -0.20523     0.44540    -0.23088     0.21188    -0.00010
           H3Z5            -0.02762     0.06648    -0.04103     0.03522     0.00014
           H4X6            -0.12475    -0.07010     0.02187    -0.12375     0.00030
           H4Y6             0.14040     0.08554    -0.02904     0.15097    -0.00155
           H4Z6             0.01610     0.01317    -0.00421     0.01544    -0.00098
           C3X7            -0.01378    -0.02209    -0.00116     0.03150     0.00072
           C3Y7             0.00786     0.03265    -0.00190    -0.06616    -0.00163
           C3Z7             0.00180     0.00178     0.00075    -0.00228     0.00089
           H5X8             0.44344     0.13859     0.08238     0.16651     0.00017
           H5Y8             0.66541     0.20818     0.12355     0.24711     0.00001
           H5Z8            -0.07970    -0.02867    -0.01617    -0.02892    -0.00026
           H6X9             0.03729    -0.02009     0.01563     0.11231    -0.00090
           H6Y9             0.06262    -0.02207     0.02284     0.15479     0.00113
           H6Z9            -0.00418     0.00231    -0.00053    -0.00761     0.00213
           H7X10            0.12491     0.27935     0.00079    -0.48036    -0.00603
           H7Y10           -0.16403    -0.36472    -0.00106     0.62239     0.00945
           H7Z10           -0.01387    -0.02755     0.00052     0.04055     0.00094
           OX11             0.00025     0.00026     0.00011    -0.00039     0.03627
           OY11             0.00007    -0.00042     0.00008     0.00133    -0.04772
           OZ11             0.00002     0.00033    -0.00009    -0.00059    -0.00964
           H8X12           -0.00194    -0.00332    -0.00012     0.00392    -0.57356
           H8Y12            0.00178     0.00539    -0.00062    -0.00968     0.76522
           H8Z12            0.00084    -0.00089    -0.00026     0.00569     0.13795


 Normal Modes of low/zero frequencies

                                  1           2           3           4           5
 Wavenumbers [cm-1]            0.00        0.00        0.00        0.00        0.00
 Intensities [km/mol]          0.00        0.00        0.00        0.00        0.00
 Intensities [relative]        0.00        0.00        0.00        0.00        0.00
           C1X1             0.00000    -0.00000     0.00000    -0.00000     0.00000
           C1Y1            -0.03891     0.02549     0.05012     0.17901     0.09952
           C1Z1             0.10112     0.02730    -0.00281     0.05060    -0.05625
           C2X2             0.03647     0.00716     0.00578    -0.02470     0.05565
           C2Y2            -0.05516     0.15158    -0.02395     0.07132     0.03945
           C2Z2             0.11816     0.03305    -0.00144     0.03685    -0.03089
           H1X3            -0.03879     0.13331    -0.15171    -0.01510    -0.01176
           H1Y3            -0.01679    -0.06557     0.14585     0.20026     0.10919
           H1Z3             0.07981     0.00411    -0.02711     0.12339    -0.04368
           H2X4            -0.01904    -0.01088     0.00436     0.01500    -0.03146
           H2Y4            -0.07337     0.12062    -0.09602     0.21854     0.12622
           H2Z4             0.12052     0.03388    -0.00120     0.03483    -0.02748
           H3X5             0.02980    -0.12832     0.14332     0.01921     0.00030
           H3Y5            -0.01410    -0.07564     0.15742     0.20130     0.10948
           H3Z5             0.08994     0.03955     0.01888     0.00397    -0.11718
           H4X6             0.00585     0.13443    -0.13674    -0.04309     0.05380
           H4Y6            -0.08096     0.25462    -0.13536     0.05139     0.03096
           H4Z6             0.12985     0.02105    -0.02298     0.08280     0.03058
           C3X7             0.06393     0.02275    -0.00039    -0.04630     0.10099
           C3Y7            -0.00790     0.02361     0.17635     0.01317     0.00057
           C3Z7             0.09178     0.02408    -0.00368     0.05841    -0.06991
           H5X8             0.07436    -0.12559     0.15659    -0.00921     0.06628
           H5Y8            -0.07797     0.24397    -0.12254     0.05170     0.03080
           H5Z8             0.13977     0.05623     0.02274    -0.03582    -0.04274
           H6X9             0.02677     0.15615    -0.15162    -0.06244     0.09166
           H6Y9             0.01543    -0.06930     0.27711     0.03072     0.00797
           H6Z9             0.06996     0.00077    -0.02794     0.13140    -0.05828
           H7X10            0.09548    -0.10472     0.14267    -0.02842     0.10414
           H7Y10            0.01772    -0.07733     0.28694     0.03075     0.00772
           H7Z10            0.08037     0.03621     0.01795     0.01208    -0.13111
           OX11             0.09946     0.02140     0.01383    -0.06792     0.15241
           OY11            -0.02277     0.13910     0.10859    -0.08560    -0.05452
           OZ11             0.10775     0.03042    -0.00103     0.04217    -0.04885
           H8X12            0.07356     0.13379    -0.11162    -0.08486     0.15243
           H8Y12           -0.04365     0.22478     0.01822    -0.10520    -0.06339
           H8Z12            0.11702     0.01954    -0.02004     0.08335     0.00369

                                  6
 Wavenumbers [cm-1]            0.00
 Intensities [km/mol]          0.00
 Intensities [relative]        0.00
           C1X1             0.20937
           C1Y1            -0.00019
           C1Z1             0.00919
           C2X2             0.11814
           C2Y2             0.00069
           C2Z2            -0.03418
           H1X3             0.21987
           H1Y3            -0.00098
           H1Z3             0.04829
           H2X4             0.26140
           H2Y4             0.00081
           H2Z4            -0.04015
           H3X5             0.21724
           H3Y5            -0.00107
           H3Z5             0.05279
           H4X6             0.11289
           H4Y6             0.00160
           H4Z6            -0.07899
           C3X7             0.04319
           C3Y7            -0.00066
           C3Z7             0.03288
           H5X8             0.10946
           H5Y8             0.00150
           H5Z8            -0.07412
           H6X9             0.04973
           H6Y9            -0.00148
           H6Z9             0.07334
           H7X10            0.04636
           H7Y10           -0.00156
           H7Z10            0.07704
           OX11            -0.04057
           OY11             0.00014
           OZ11            -0.00683
           H8X12           -0.04792
           H8Y12            0.00088
           H8Z12           -0.04367


 Frequencies dumped to record   5400.2
 Frequency information read from record  5400.2

 Zero point energy:  0.11554648 [H]    25359.52 [1/CM]      303.37 [KJ/MOL]


 **********************************************************************************************************************************
 DATASETS  * FILE   NREC   LENGTH (MB)   RECORD NAMES
              1      19       29.56       500      610      700      900      700(1)   950      970     1000      129      960   
                                          VAR    BASINP    GEOM    SYMINP    GEOM     ZMAT    AOBASIS   BASIS     P2S    ABASIS    
                                         1100     1400     1410     1200     1210     1080     1600     1650     1700   
                                           S        T        V       H0       H01     AOSYM     SMH    MOLCAS    OPER   

              2       8        1.01       700     1000      520     2100      700(1)  5300     5450     5400   
                                         GEOM     BASIS   MCVARS     RHF     GEOM     HESS     NMOD     FREQ   

              4       5        8.03      4100     4000     4200     4300     4400   

 PROGRAMS   *        TOTAL      FREQ      OPTG    HF-SCF       INT
 CPU TIMES  *       242.67     23.60    217.44      0.40      1.02
 REAL TIME  *       262.36 SEC
 DISK USED  *        31.54 MB (local),      639.75 MB (total)
 SF USED    *         8.03 MB
 GA USED    *         0.00 MB       (max)       0.00 MB       (current)
 **********************************************************************************************************************************

 Dump information in style MOLDEN to propanol.molden                                                                 

 Molecular orbitals read from record     2100.2  Type=RHF/CANONICAL  
 Occupation numbers read from record     2100.2  Type=RHF/RHF  
 Orbital energies read from record       2100.2  Type=RHF/CANONICAL  
 Redundancy group numbers read from rec  2100.2  Type=RHF/RHF  

 DUMP ORBITAL  1.1 AS ORBITAL    1  occ=    2.0000  eig=  -20.5405  GROUP=   2
 DUMP ORBITAL  2.1 AS ORBITAL    2  occ=    2.0000  eig=  -11.2670  GROUP=   2
 DUMP ORBITAL  3.1 AS ORBITAL    3  occ=    2.0000  eig=  -11.2197  GROUP=   2
 DUMP ORBITAL  4.1 AS ORBITAL    4  occ=    2.0000  eig=  -11.2164  GROUP=   2
 DUMP ORBITAL  5.1 AS ORBITAL    5  occ=    2.0000  eig=   -1.3630  GROUP=   2
 DUMP ORBITAL  6.1 AS ORBITAL    6  occ=    2.0000  eig=   -1.0543  GROUP=   2
 DUMP ORBITAL  7.1 AS ORBITAL    7  occ=    2.0000  eig=   -0.9194  GROUP=   2
 DUMP ORBITAL  8.1 AS ORBITAL    8  occ=    2.0000  eig=   -0.8200  GROUP=   2
 DUMP ORBITAL  9.1 AS ORBITAL    9  occ=    2.0000  eig=   -0.6950  GROUP=   2
 DUMP ORBITAL 10.1 AS ORBITAL   10  occ=    2.0000  eig=   -0.6361  GROUP=   2
 DUMP ORBITAL 11.1 AS ORBITAL   11  occ=    2.0000  eig=   -0.5990  GROUP=   2
 DUMP ORBITAL 12.1 AS ORBITAL   12  occ=    2.0000  eig=   -0.5874  GROUP=   2
 DUMP ORBITAL 13.1 AS ORBITAL   13  occ=    2.0000  eig=   -0.5467  GROUP=   2
 DUMP ORBITAL 14.1 AS ORBITAL   14  occ=    2.0000  eig=   -0.5013  GROUP=   2
 DUMP ORBITAL 15.1 AS ORBITAL   15  occ=    2.0000  eig=   -0.4997  GROUP=   2
 DUMP ORBITAL 16.1 AS ORBITAL   16  occ=    2.0000  eig=   -0.4698  GROUP=   2
 DUMP ORBITAL 17.1 AS ORBITAL   17  occ=    2.0000  eig=   -0.4317  GROUP=   2

 Total electronic charge:      34.000000
 Frequency information read from record  5400.2

 **********************************************************************************************************************************

 HF/6-311G(D,P)//HF/6-311G(D,P) energy=   -193.169708876689

    OPTG(HF-SCF)          HF-SCF
   -193.16970888   -193.16258262
 **********************************************************************************************************************************
 Molpro calculation terminated with 1 warning(s)
